Program Version,EnergyPlus, Version 9.1.0-08d2e308bb, YMD=2019.04.09 23:08
1,5,Environment Title[],Latitude[deg],Longitude[deg],Time Zone[],Elevation[m]
2,8,Day of Simulation[],Month[],Day of Month[],DST Indicator[1=yes 0=no],Hour[],StartMinute[],EndMinute[],DayType
3,5,Cumulative Day of Simulation[],Month[],Day of Month[],DST Indicator[1=yes 0=no],DayType  ! When Daily Report Variables Requested
4,2,Cumulative Days of Simulation[],Month[]  ! When Monthly Report Variables Requested
5,1,Cumulative Days of Simulation[] ! When Run Period Report Variables Requested
6,1,Calendar Year of Simulation[] ! When Annual Report Variables Requested
7,9,Environment,Site Outdoor Air Drybulb Temperature [C] !Monthly [Value,Min,Day,Hour,Minute,Max,Day,Hour,Minute]
8,1,Environment,Site Outdoor Air Wetbulb Temperature [C] !TimeStep
938,1,CORE_BOTTOM ZN,Zone Air Temperature [C] !Hourly
939,7,CORE_BOTTOM ZN,Zone Air Relative Humidity [%] !Daily [Value,Min,Hour,Minute,Max,Hour,Minute]
978,1,CORE_MID ZN,Zone Air Temperature [C] !Hourly
979,7,CORE_MID ZN,Zone Air Relative Humidity [%] !Daily [Value,Min,Hour,Minute,Max,Hour,Minute]
1018,1,CORE_TOP ZN,Zone Air Temperature [C] !Hourly
1019,7,CORE_TOP ZN,Zone Air Relative Humidity [%] !Daily [Value,Min,Hour,Minute,Max,Hour,Minute]
1058,1,FIRSTFLOOR_PLENUM ZN,Zone Air Temperature [C] !Hourly
1059,7,FIRSTFLOOR_PLENUM ZN,Zone Air Relative Humidity [%] !Daily [Value,Min,Hour,Minute,Max,Hour,Minute]
1098,1,MIDFLOOR_PLENUM ZN,Zone Air Temperature [C] !Hourly
1099,7,MIDFLOOR_PLENUM ZN,Zone Air Relative Humidity [%] !Daily [Value,Min,Hour,Minute,Max,Hour,Minute]
1138,1,PERIMETER_BOT_ZN_1 ZN,Zone Air Temperature [C] !Hourly
1139,7,PERIMETER_BOT_ZN_1 ZN,Zone Air Relative Humidity [%] !Daily [Value,Min,Hour,Minute,Max,Hour,Minute]
1178,1,PERIMETER_BOT_ZN_2 ZN,Zone Air Temperature [C] !Hourly
1179,7,PERIMETER_BOT_ZN_2 ZN,Zone Air Relative Humidity [%] !Daily [Value,Min,Hour,Minute,Max,Hour,Minute]
1218,1,PERIMETER_BOT_ZN_3 ZN,Zone Air Temperature [C] !Hourly
1219,7,PERIMETER_BOT_ZN_3 ZN,Zone Air Relative Humidity [%] !Daily [Value,Min,Hour,Minute,Max,Hour,Minute]
1258,1,PERIMETER_BOT_ZN_4 ZN,Zone Air Temperature [C] !Hourly
1259,7,PERIMETER_BOT_ZN_4 ZN,Zone Air Relative Humidity [%] !Daily [Value,Min,Hour,Minute,Max,Hour,Minute]
1298,1,PERIMETER_MID_ZN_1 ZN,Zone Air Temperature [C] !Hourly
1299,7,PERIMETER_MID_ZN_1 ZN,Zone Air Relative Humidity [%] !Daily [Value,Min,Hour,Minute,Max,Hour,Minute]
1338,1,PERIMETER_MID_ZN_2 ZN,Zone Air Temperature [C] !Hourly
1339,7,PERIMETER_MID_ZN_2 ZN,Zone Air Relative Humidity [%] !Daily [Value,Min,Hour,Minute,Max,Hour,Minute]
1378,1,PERIMETER_MID_ZN_3 ZN,Zone Air Temperature [C] !Hourly
1379,7,PERIMETER_MID_ZN_3 ZN,Zone Air Relative Humidity [%] !Daily [Value,Min,Hour,Minute,Max,Hour,Minute]
1418,1,PERIMETER_MID_ZN_4 ZN,Zone Air Temperature [C] !Hourly
1419,7,PERIMETER_MID_ZN_4 ZN,Zone Air Relative Humidity [%] !Daily [Value,Min,Hour,Minute,Max,Hour,Minute]
1458,1,PERIMETER_TOP_ZN_1 ZN,Zone Air Temperature [C] !Hourly
1459,7,PERIMETER_TOP_ZN_1 ZN,Zone Air Relative Humidity [%] !Daily [Value,Min,Hour,Minute,Max,Hour,Minute]
1498,1,PERIMETER_TOP_ZN_2 ZN,Zone Air Temperature [C] !Hourly
1499,7,PERIMETER_TOP_ZN_2 ZN,Zone Air Relative Humidity [%] !Daily [Value,Min,Hour,Minute,Max,Hour,Minute]
1538,1,PERIMETER_TOP_ZN_3 ZN,Zone Air Temperature [C] !Hourly
1539,7,PERIMETER_TOP_ZN_3 ZN,Zone Air Relative Humidity [%] !Daily [Value,Min,Hour,Minute,Max,Hour,Minute]
1578,1,PERIMETER_TOP_ZN_4 ZN,Zone Air Temperature [C] !Hourly
1579,7,PERIMETER_TOP_ZN_4 ZN,Zone Air Relative Humidity [%] !Daily [Value,Min,Hour,Minute,Max,Hour,Minute]
1618,1,TOPFLOOR_PLENUM ZN,Zone Air Temperature [C] !Hourly
1619,7,TOPFLOOR_PLENUM ZN,Zone Air Relative Humidity [%] !Daily [Value,Min,Hour,Minute,Max,Hour,Minute]
10,1,Electricity:Facility [J] !TimeStep
704,1,Gas:Facility [J] !TimeStep
End of Data Dictionary
1,HOUSTON BUSH INTERCONTINENTAL ANN CLG .4% CONDNS DB=>MWB,  30.00, -95.37,  -6.00,  29.00
2,1, 7,21, 0, 1, 0.00,10.00,SummerDesignDay
8,22.55515166200166
10,82990188.62161893
704,766168.196131842
2,1, 7,21, 0, 1,10.00,20.00,SummerDesignDay
8,22.526850134727679
10,83010200.0700913
704,766168.196131842
2,1, 7,21, 0, 1,20.00,30.00,SummerDesignDay
8,22.498517194785639
10,83030653.45973164
704,766168.196131842
2,1, 7,21, 0, 1,30.00,40.00,SummerDesignDay
8,22.47015203492528
10,83047773.82443121
704,766168.196131842
2,1, 7,21, 0, 1,40.00,50.00,SummerDesignDay
8,22.441756223232479
10,83066520.55691955
704,766168.196131842
2,1, 7,21, 0, 1,50.00,60.00,SummerDesignDay
8,22.41333327947745
10,83082803.11158836
704,766168.196131842
2,1, 7,21, 0, 1, 0.00,60.00,SummerDesignDay
938,26.701713322457498
978,26.700315060278695
1018,26.700285502993127
1058,27.121941751406678
1098,27.109483376230178
1138,26.49762416629308
1178,26.524803952651586
1218,26.472646328719809
1258,26.69828003186194
1298,26.699622913789836
1338,26.699775792803078
1378,26.699584669324169
1418,26.699780561927584
1458,26.699523253450669
1498,26.6997055567263
1538,26.699471631756344
1578,26.69969959276511
1618,26.995838442139488
2,1, 7,21, 0, 2, 0.00,10.00,SummerDesignDay
8,22.394357103043434
10,83099991.23695758
704,766168.196131842
2,1, 7,21, 0, 2,10.00,20.00,SummerDesignDay
8,22.375371366599194
10,83115366.80320645
704,766168.196131842
2,1, 7,21, 0, 2,20.00,30.00,SummerDesignDay
8,22.356372115234558
10,83131460.97442404
704,766168.196131842
2,1, 7,21, 0, 2,30.00,40.00,SummerDesignDay
8,22.33736295549441
10,83145063.39894024
704,766168.196131842
2,1, 7,21, 0, 2,40.00,50.00,SummerDesignDay
8,22.31833500798559
10,83157100.59385878
704,766168.196131842
2,1, 7,21, 0, 2,50.00,60.00,SummerDesignDay
8,22.299293004300805
10,83168610.53234503
704,766168.196131842
2,1, 7,21, 0, 2, 0.00,60.00,SummerDesignDay
938,26.701629269188403
978,26.70027830966355
1018,26.700289157175125
1058,27.172119510138584
1098,27.154902691408
1138,26.540998463219667
1178,26.563778906498969
1218,26.514183861505228
1258,26.69972794342057
1298,26.69948657810129
1338,26.699610286937476
1378,26.699562326771824
1418,26.699563535515908
1458,26.6994110690699
1498,26.699462722915269
1538,26.69946991250802
1578,26.699463484103189
1618,27.022924744925154
2,1, 7,21, 0, 3, 0.00,10.00,SummerDesignDay
8,22.28500102240784
10,83180262.19895777
704,766168.196131842
2,1, 7,21, 0, 3,10.00,20.00,SummerDesignDay
8,22.27070533801161
10,83191873.37082082
704,766168.196131842
2,1, 7,21, 0, 3,20.00,30.00,SummerDesignDay
8,22.256397908168304
10,83202885.97470302
704,766168.196131842
2,1, 7,21, 0, 3,30.00,40.00,SummerDesignDay
8,22.24208582934788
10,83213542.15598041
704,766168.196131842
2,1, 7,21, 0, 3,40.00,50.00,SummerDesignDay
8,22.227762416136
10,83223775.55438188
704,766168.196131842
2,1, 7,21, 0, 3,50.00,60.00,SummerDesignDay
8,22.213434369456495
10,83233630.66643083
704,766168.196131842
2,1, 7,21, 0, 3, 0.00,60.00,SummerDesignDay
938,26.701575972573087
978,26.700272446425307
1018,26.70028521411257
1058,27.218018264754638
1098,27.196163694879034
1138,26.56225273074972
1178,26.580477890156407
1218,26.534978037033885
1258,26.699632217826986
1298,26.699515077651598
1338,26.69945886518694
1378,26.69953660853497
1418,26.69928558406417
1458,26.69942762013804
1498,26.699330177663737
1538,26.699441807109577
1578,26.69927623995451
1618,27.01625649486614
2,1, 7,21, 0, 4, 0.00,10.00,SummerDesignDay
8,22.199094133336208
10,83243149.13989803
704,766168.196131842
2,1, 7,21, 0, 4,10.00,20.00,SummerDesignDay
8,22.184746117844438
10,83252325.33166191
704,766168.196131842
2,1, 7,21, 0, 4,20.00,30.00,SummerDesignDay
8,22.170394208674524
10,83261190.71628982
704,766168.196131842
2,1, 7,21, 0, 4,30.00,40.00,SummerDesignDay
8,22.156029943052258
10,83269731.61646787
704,766168.196131842
2,1, 7,21, 0, 4,40.00,50.00,SummerDesignDay
8,22.14166229604138
10,83277980.53463757
704,766168.196131842
2,1, 7,21, 0, 4,50.00,60.00,SummerDesignDay
8,22.127282061051376
10,83285892.67185834
704,766168.196131842
2,1, 7,21, 0, 4, 0.00,60.00,SummerDesignDay
938,26.701537304500197
978,26.700273601678786
1018,26.7002831259441
1058,27.2618545260401
1098,27.235576574254144
1138,26.5754030139117
1178,26.589047836897295
1218,26.548428462704533
1258,26.699585828224785
1298,26.699518556026875
1338,26.69938423535609
1378,26.69954079381405
1418,26.699175395398475
1458,26.69942255579865
1498,26.699274500902594
1538,26.69943642117964
1578,26.699273450101175
1618,27.000253728721789
2,1, 7,21, 0, 5, 0.00,10.00,SummerDesignDay
8,22.117693369939994
10,83294329.94279719
704,766168.196131842
2,1, 7,21, 0, 5,10.00,20.00,SummerDesignDay
8,22.108096391308693
10,83302790.55291024
704,766168.196131842
2,1, 7,21, 0, 5,20.00,30.00,SummerDesignDay
8,22.098501081595648
10,83311114.1403428
704,766168.196131842
2,1, 7,21, 0, 5,30.00,40.00,SummerDesignDay
8,22.08890192228894
10,83319212.32718626
704,766168.196131842
2,1, 7,21, 0, 5,40.00,50.00,SummerDesignDay
8,22.07929455666112
10,83324672.31903747
704,766168.196131842
2,1, 7,21, 0, 5,50.00,60.00,SummerDesignDay
8,22.06968746468033
10,83332854.09064418
704,766168.196131842
2,1, 7,21, 0, 5, 0.00,60.00,SummerDesignDay
938,26.70150999269399
978,26.700305751447759
1018,26.70030392934864
1058,27.303847171823749
1098,27.273346001731864
1138,26.585316450323036
1178,26.594641068851023
1218,26.559013224275949
1258,26.699565983044825
1298,26.699532138381615
1338,26.699410829369709
1378,26.69955518658392
1418,26.69920024154126
1458,26.699424081541726
1498,26.699248502303786
1538,26.699438145647503
1578,26.69933441244589
1618,26.982454243332815
2,1, 7,21, 0, 6, 0.00,10.00,SummerDesignDay
8,22.07929455666112
10,92333656.820636
704,766168.196131842
2,1, 7,21, 0, 6,10.00,20.00,SummerDesignDay
8,22.08890192228894
10,84019212.04920572
704,766168.196131842
2,1, 7,21, 0, 6,20.00,30.00,SummerDesignDay
8,22.098501081595648
10,88702688.7311269
704,766168.196131842
2,1, 7,21, 0, 6,30.00,40.00,SummerDesignDay
8,22.108096391308693
10,84270393.06531763
704,766168.196131842
2,1, 7,21, 0, 6,40.00,50.00,SummerDesignDay
8,22.117693369939994
10,83404368.16249117
704,766168.196131842
2,1, 7,21, 0, 6,50.00,60.00,SummerDesignDay
8,22.127282061051376
10,81544740.50828165
704,766168.196131842
2,1, 7,21, 0, 6, 0.00,60.00,SummerDesignDay
938,25.7169963675402
978,25.717618681579144
1018,25.716261938891848
1058,27.30588482702285
1098,27.267480106476698
1138,25.667681058925085
1178,25.66894177000464
1218,25.67874843099241
1258,25.669056818977269
1298,25.69737701605744
1338,25.69526109302751
1378,25.706323201918854
1418,25.695963214641357
1458,25.6952885552727
1498,25.694919990851223
1538,25.696010395092548
1578,25.695695491189736
1618,26.89734426680074
2,1, 7,21, 0, 7, 0.00,10.00,SummerDesignDay
8,22.16081788128382
10,90405677.31047435
704,766168.196131842
2,1, 7,21, 0, 7,10.00,20.00,SummerDesignDay
8,22.194314060674317
10,84823196.81795691
704,766168.196131842
2,1, 7,21, 0, 7,20.00,30.00,SummerDesignDay
8,22.227762416136
10,88127892.0994732
704,766168.196131842
2,1, 7,21, 0, 7,30.00,40.00,SummerDesignDay
8,22.261166449857777
10,87106919.99863933
704,766168.196131842
2,1, 7,21, 0, 7,40.00,50.00,SummerDesignDay
8,22.2945317589312
10,87068624.27818372
704,766168.196131842
2,1, 7,21, 0, 7,50.00,60.00,SummerDesignDay
8,22.32784836437558
10,87206283.44713633
704,766168.196131842
2,1, 7,21, 0, 7, 0.00,60.00,SummerDesignDay
938,25.012159320331788
978,25.013062708066454
1018,25.010559026176187
1058,27.28046735703943
1098,27.23932462498472
1138,25.003627421252206
1178,25.004126750760464
1218,25.003546818896667
1258,25.003543100116429
1298,25.00401745685846
1338,25.0045963118408
1378,25.00461974364983
1418,25.00389836481591
1458,25.004203625884136
1498,25.00462400124216
1538,25.004088514337995
1578,25.003929117854228
1618,26.797669466535284
2,1, 7,21, 0, 8, 0.00,10.00,SummerDesignDay
8,22.408583080392626
10,99488572.55899571
704,766168.196131842
2,1, 7,21, 0, 8,10.00,20.00,SummerDesignDay
8,22.48906704679055
10,97805738.14413293
704,766168.196131842
2,1, 7,21, 0, 8,20.00,30.00,SummerDesignDay
8,22.569293147585947
10,97005672.52136745
704,766168.196131842
2,1, 7,21, 0, 8,30.00,40.00,SummerDesignDay
8,22.649266945139865
10,95860913.66669701
704,766168.196131842
2,1, 7,21, 0, 8,40.00,50.00,SummerDesignDay
8,22.72898934285821
10,95909661.23122265
704,766168.196131842
2,1, 7,21, 0, 8,50.00,60.00,SummerDesignDay
8,22.80846232135329
10,95813993.36608209
704,766168.196131842
2,1, 7,21, 0, 8, 0.00,60.00,SummerDesignDay
938,24.071564957333945
978,24.073124916781486
1018,24.058680868750938
1058,27.238125501827964
1098,27.210390617748446
1138,24.023425375902094
1178,24.025394433970914
1218,24.0482435731066
1258,24.0070266653685
1298,24.023937777544757
1338,24.02627165723243
1378,24.051307597768369
1418,24.008789678165785
1458,24.016798144650215
1498,24.024111562574718
1538,24.0316803738905
1578,24.0076401494798
1618,26.93871675189929
2,1, 7,21, 0, 9, 0.00,10.00,SummerDesignDay
8,22.89699452446473
10,95808849.02359979
704,766168.196131842
2,1, 7,21, 0, 9,10.00,20.00,SummerDesignDay
8,22.985217781404136
10,95847518.55156987
704,766168.196131842
2,1, 7,21, 0, 9,20.00,30.00,SummerDesignDay
8,23.073130643143519
10,95914996.90954612
704,766168.196131842
2,1, 7,21, 0, 9,30.00,40.00,SummerDesignDay
8,23.160743471259779
10,96005351.71998163
704,766168.196131842
2,1, 7,21, 0, 9,40.00,50.00,SummerDesignDay
8,23.248048421233255
10,96110435.51407115
704,766168.196131842
2,1, 7,21, 0, 9,50.00,60.00,SummerDesignDay
8,23.33505738606609
10,96225911.25603496
704,766168.196131842
2,1, 7,21, 0, 9, 0.00,60.00,SummerDesignDay
938,24.000821182403489
978,24.00093288235826
1018,24.001070177382304
1058,27.21086708515118
1098,27.189476780667758
1138,24.00084417876141
1178,24.00058957906546
1218,24.001207070526705
1258,24.000924277845998
1298,24.000682086346357
1338,24.000577605350928
1378,24.000989796793605
1418,24.000793869501263
1458,24.00098114588566
1498,24.0005933873732
1538,24.000541229241745
1578,24.000815985283709
1618,27.469004342542538
2,1, 7,21, 0,10, 0.00,10.00,SummerDesignDay
8,23.41265100341451
10,96336981.25413148
704,766168.196131842
2,1, 7,21, 0,10,10.00,20.00,SummerDesignDay
8,23.490006602427905
10,96401270.74362432
704,766168.196131842
2,1, 7,21, 0,10,20.00,30.00,SummerDesignDay
8,23.567129080603008
10,96567908.30886452
704,766168.196131842
2,1, 7,21, 0,10,30.00,40.00,SummerDesignDay
8,23.64401189423285
10,96665026.959116
704,766168.196131842
2,1, 7,21, 0,10,40.00,50.00,SummerDesignDay
8,23.720659712070007
10,96788717.55102609
704,766168.196131842
2,1, 7,21, 0,10,50.00,60.00,SummerDesignDay
8,23.797074644998138
10,96895009.19288318
704,766168.196131842
2,1, 7,21, 0,10, 0.00,60.00,SummerDesignDay
938,24.00086312330197
978,24.00103351914184
1018,24.00097456066993
1058,27.234357166182993
1098,27.20985631695653
1138,24.000654920421128
1178,24.000608109145884
1218,24.001053049817189
1258,24.000844305064957
1298,24.00080290764493
1338,24.0005925870139
1378,24.000884654787219
1418,24.001172375660379
1458,24.000702375224618
1498,24.000571668085184
1538,24.001095309708647
1578,24.000935387015166
1618,28.290729358742796
2,1, 7,21, 0,11, 0.00,10.00,SummerDesignDay
8,23.864307802665026
10,97076813.95235883
704,766168.196131842
2,1, 7,21, 0,11,10.00,20.00,SummerDesignDay
8,23.93136184762686
10,97167843.31454136
704,766168.196131842
2,1, 7,21, 0,11,20.00,30.00,SummerDesignDay
8,23.998236689043716
10,97268860.03883212
704,766168.196131842
2,1, 7,21, 0,11,30.00,40.00,SummerDesignDay
8,24.064933161106909
10,97424032.98158969
704,766168.196131842
2,1, 7,21, 0,11,40.00,50.00,SummerDesignDay
8,24.13145676358548
10,97546375.46636029
704,766168.196131842
2,1, 7,21, 0,11,50.00,60.00,SummerDesignDay
8,24.197781774698226
10,97631356.09102108
704,766168.196131842
2,1, 7,21, 0,11, 0.00,60.00,SummerDesignDay
938,24.00090377500186
978,24.00111294703463
1018,24.00084735800625
1058,27.24839830977316
1098,27.222545013637615
1138,24.00105464966649
1178,24.001082713702347
1218,24.00079643697501
1258,24.000816565495187
1298,24.001224156043749
1338,24.000993455191318
1378,24.000707460491527
1418,24.000651997479506
1458,24.001015507954717
1498,24.00083564178205
1538,24.001020710109687
1578,24.000777086023719
1618,29.120069576877726
2,1, 7,21, 0,12, 0.00,10.00,SummerDesignDay
8,24.241912042460787
10,97651703.11933743
704,766168.196131842
2,1, 7,21, 0,12,10.00,20.00,SummerDesignDay
8,24.285965402847194
10,97698940.34207715
704,766168.196131842
2,1, 7,21, 0,12,20.00,30.00,SummerDesignDay
8,24.3299406594327
10,97698509.1683443
704,766168.196131842
2,1, 7,21, 0,12,30.00,40.00,SummerDesignDay
8,24.37383792896479
10,97588001.9029655
704,766168.196131842
2,1, 7,21, 0,12,40.00,50.00,SummerDesignDay
8,24.417658514747676
10,97548846.11982085
704,766168.196131842
2,1, 7,21, 0,12,50.00,60.00,SummerDesignDay
8,24.461402047458465
10,97432570.9536554
704,766168.196131842
2,1, 7,21, 0,12, 0.00,60.00,SummerDesignDay
938,24.000944194824318
978,24.001190061258059
1018,24.00074924869324
1058,27.251262908414007
1098,27.22594909171926
1138,24.000801489671685
1178,24.001058767426476
1218,24.000703627311045
1258,24.000831782716167
1298,24.000700161654433
1338,24.00115116406742
1378,24.000645055168098
1418,24.000559708844546
1458,24.000800759829855
1498,24.001444626525268
1538,24.00076826245372
1578,24.000559180759337
1618,29.82249044264751
2,1, 7,21, 0,13, 0.00,10.00,SummerDesignDay
8,24.4963482406198
10,97338487.459545
704,766168.196131842
2,1, 7,21, 0,13,10.00,20.00,SummerDesignDay
8,24.531240281686157
10,97285759.15437706
704,766168.196131842
2,1, 7,21, 0,13,20.00,30.00,SummerDesignDay
8,24.566071841916153
10,97295490.0651636
704,766168.196131842
2,1, 7,21, 0,13,30.00,40.00,SummerDesignDay
8,24.60086617144924
10,97322701.61970477
704,766168.196131842
2,1, 7,21, 0,13,40.00,50.00,SummerDesignDay
8,24.63561727012247
10,97472281.29431518
704,766168.196131842
2,1, 7,21, 0,13,50.00,60.00,SummerDesignDay
8,24.67031466724826
10,97661909.95556502
704,766168.196131842
2,1, 7,21, 0,13, 0.00,60.00,SummerDesignDay
938,24.000986206112346
978,24.001268954333808
1018,24.00069122453443
1058,27.24476643081241
1098,27.222609735236177
1138,24.00059576829139
1178,24.00158962959985
1218,24.000659474486047
1258,24.000922359163217
1298,24.00057231584583
1338,24.001581108021147
1378,24.00061561503817
1418,24.000539816661655
1458,24.0005828259667
1498,24.00099338501739
1538,24.000653946817903
1578,24.000815788952126
1618,30.320278857845947
2,1, 7,21, 0,14, 0.00,10.00,SummerDesignDay
8,24.691975315719227
10,97843292.984728
704,766168.196131842
2,1, 7,21, 0,14,10.00,20.00,SummerDesignDay
8,24.713616857955605
10,98025413.9660574
704,766168.196131842
2,1, 7,21, 0,14,20.00,30.00,SummerDesignDay
8,24.735239492462396
10,98202543.99077423
704,766168.196131842
2,1, 7,21, 0,14,30.00,40.00,SummerDesignDay
8,24.75684358990104
10,98375112.08261262
704,766168.196131842
2,1, 7,21, 0,14,40.00,50.00,SummerDesignDay
8,24.778428575760857
10,98538220.6797569
704,766168.196131842
2,1, 7,21, 0,14,50.00,60.00,SummerDesignDay
8,24.79999519699483
10,98691361.14335819
704,766168.196131842
2,1, 7,21, 0,14, 0.00,60.00,SummerDesignDay
938,24.001021146517816
978,24.001334132711425
1018,24.000660151883769
1058,27.23714865344566
1098,27.221042643322308
1138,24.00059642922785
1178,24.00057121253671
1218,24.000604762587377
1258,24.001108385293646
1298,24.000576870073158
1338,24.001888778280049
1378,24.000577790804149
1418,24.0014078341268
1458,24.000558337462093
1498,24.001139524219668
1538,24.00057879596238
1578,24.001244589937035
1618,30.6164170929828
2,1, 7,21, 0,15, 0.00,10.00,SummerDesignDay
8,24.79999519699483
10,98800209.120807
704,766168.196131842
2,1, 7,21, 0,15,10.00,20.00,SummerDesignDay
8,24.79999519699483
10,98879184.87741937
704,766168.196131842
2,1, 7,21, 0,15,20.00,30.00,SummerDesignDay
8,24.79999519699483
10,98916037.7187637
704,766168.196131842
2,1, 7,21, 0,15,30.00,40.00,SummerDesignDay
8,24.79999519699483
10,98982122.06942569
704,766168.196131842
2,1, 7,21, 0,15,40.00,50.00,SummerDesignDay
8,24.79999519699483
10,99112049.05022682
704,766168.196131842
2,1, 7,21, 0,15,50.00,60.00,SummerDesignDay
8,24.79999519699483
10,99281687.76861687
704,766168.196131842
2,1, 7,21, 0,15, 0.00,60.00,SummerDesignDay
938,24.00104546829885
978,24.001380971816386
1018,24.00064990053133
1058,27.2382941211637
1098,27.230056712789709
1138,24.000746121877865
1178,24.000557422094059
1218,24.00059307241815
1258,24.000873928655165
1298,24.00069420349942
1338,24.00211400340243
1378,24.000571719738109
1418,24.000889908594315
1458,24.000634239226149
1498,24.001219647294734
1538,24.000558719031408
1578,24.000833849573558
1618,30.731046217027637
2,1, 7,21, 0,16, 0.00,10.00,SummerDesignDay
8,24.774109911402314
10,99303441.5508494
704,766168.196131842
2,1, 7,21, 0,16,10.00,20.00,SummerDesignDay
8,24.748193058907299
10,99303004.9341112
704,766168.196131842
2,1, 7,21, 0,16,20.00,30.00,SummerDesignDay
8,24.72226641808931
10,99277566.5904739
704,766168.196131842
2,1, 7,21, 0,16,30.00,40.00,SummerDesignDay
8,24.69629573485237
10,99229629.84689592
704,766168.196131842
2,1, 7,21, 0,16,40.00,50.00,SummerDesignDay
8,24.67031466724826
10,99182061.64856209
704,766168.196131842
2,1, 7,21, 0,16,50.00,60.00,SummerDesignDay
8,24.64429386676247
10,99135766.09469106
704,766168.196131842
2,1, 7,21, 0,16, 0.00,60.00,SummerDesignDay
938,24.001068763652304
978,24.001425864566174
1018,24.000668282799649
1058,27.244320019928869
1098,27.244214100378288
1138,24.00112964758607
1178,24.000559001563713
1218,24.00068167834337
1258,24.000744114341399
1298,24.000994914948234
1338,24.00123694399727
1378,24.000641793833919
1418,24.000704625691048
1458,24.000862628044616
1498,24.00146500438134
1538,24.000616044474115
1578,24.00066386230119
1618,30.645925749580603
2,1, 7,21, 0,17, 0.00,10.00,SummerDesignDay
8,24.609555269533723
10,99064182.11144369
704,766168.196131842
2,1, 7,21, 0,17,10.00,20.00,SummerDesignDay
8,24.574785653419665
10,98977909.84671484
704,766168.196131842
2,1, 7,21, 0,17,20.00,30.00,SummerDesignDay
8,24.53995372449976
10,98876777.01919766
704,766168.196131842
2,1, 7,21, 0,17,30.00,40.00,SummerDesignDay
8,24.505073792047609
10,98758691.32516901
704,766168.196131842
2,1, 7,21, 0,17,40.00,50.00,SummerDesignDay
8,24.470140173703635
10,98674064.54654719
704,766168.196131842
2,1, 7,21, 0,17,50.00,60.00,SummerDesignDay
8,24.435179734761314
10,98673639.56131505
704,766168.196131842
2,1, 7,21, 0,17, 0.00,60.00,SummerDesignDay
938,24.001095394334898
978,24.001310800856687
1018,24.000724713305848
1058,27.241829086822084
1098,27.248080948148716
1138,24.001139100985996
1178,24.00056931724735
1218,24.000678301893033
1258,24.00056255955533
1298,24.00136192802148
1338,24.000573165763659
1378,24.000642731470334
1418,24.00055489759902
1458,24.001195949889149
1498,24.001949539575859
1538,24.000639379742336
1578,24.000551485832035
1618,30.340083439255108
2,1, 7,21, 0,18, 0.00,10.00,SummerDesignDay
8,24.391385151553675
10,98360753.14737101
704,766168.196131842
2,1, 7,21, 0,18,10.00,20.00,SummerDesignDay
8,24.347518457299747
10,98038729.48342414
704,766168.196131842
2,1, 7,21, 0,18,20.00,30.00,SummerDesignDay
8,24.30357424691312
10,97744700.87019409
704,766168.196131842
2,1, 7,21, 0,18,30.00,40.00,SummerDesignDay
8,24.259552332546677
10,97461321.49662234
704,766168.196131842
2,1, 7,21, 0,18,40.00,50.00,SummerDesignDay
8,24.215452456223976
10,97076296.60130464
704,766168.196131842
2,1, 7,21, 0,18,50.00,60.00,SummerDesignDay
8,24.171275219179657
10,96729260.56404455
704,766168.196131842
2,1, 7,21, 0,18, 0.00,60.00,SummerDesignDay
938,24.001122924052358
978,24.00065977122033
1018,24.000830564340615
1058,27.223511136620428
1098,27.234878893844294
1138,24.000635347022639
1178,24.000547634805419
1218,24.000623427435114
1258,24.000861412867683
1298,24.000904129615369
1338,24.000582836341449
1378,24.00060513041151
1418,24.000815341058613
1458,24.001300002732493
1498,24.000942753365196
1538,24.000652917689469
1578,24.00082835771406
1618,29.830119719835524
2,1, 7,21, 0,19, 0.00,10.00,SummerDesignDay
8,24.104862614075448
10,96231008.14298152
704,766168.196131842
2,1, 7,21, 0,19,10.00,20.00,SummerDesignDay
8,24.038272536484607
10,96098125.4927782
704,766168.196131842
2,1, 7,21, 0,19,20.00,30.00,SummerDesignDay
8,23.971500049970403
10,96044190.00547524
704,766168.196131842
2,1, 7,21, 0,19,30.00,40.00,SummerDesignDay
8,23.90455374910954
10,95855734.66021942
704,766168.196131842
2,1, 7,21, 0,19,40.00,50.00,SummerDesignDay
8,23.837428259103495
10,95962126.6676927
704,766168.196131842
2,1, 7,21, 0,19,50.00,60.00,SummerDesignDay
8,23.770122566836709
10,97013117.72068598
704,766168.196131842
2,1, 7,21, 0,19, 0.00,60.00,SummerDesignDay
938,24.001156828109843
978,24.00061029372907
1018,24.001016965421259
1058,27.18089240678775
1098,27.194867236537175
1138,24.00102517662901
1178,24.000841010098957
1218,24.000873242902988
1258,24.00130737952716
1298,24.00078955014386
1338,24.000640086788097
1378,24.000978030978378
1418,24.001360759421574
1458,24.000779811475359
1498,24.00058375660629
1538,24.00115263360109
1578,24.00138705615869
1618,29.138882820698169
2,1, 7,21, 0,20, 0.00,10.00,SummerDesignDay
8,23.720659712070007
10,98141862.99208312
704,766168.196131842
2,1, 7,21, 0,20,10.00,20.00,SummerDesignDay
8,23.671090474146888
10,102415487.56050907
704,766168.196131842
2,1, 7,21, 0,20,20.00,30.00,SummerDesignDay
8,23.621423087029166
10,102168053.42349316
704,766168.196131842
2,1, 7,21, 0,20,30.00,40.00,SummerDesignDay
8,23.57165702277583
10,101932888.03071843
704,766168.196131842
2,1, 7,21, 0,20,40.00,50.00,SummerDesignDay
8,23.52179311411177
10,101640240.91099884
704,766168.196131842
2,1, 7,21, 0,20,50.00,60.00,SummerDesignDay
8,23.47182921589996
10,101383222.99182718
704,766168.196131842
2,1, 7,21, 0,20, 0.00,60.00,SummerDesignDay
938,24.00121999826607
978,24.00063742074264
1018,24.001331999347419
1058,27.107528819501878
1098,27.121834924162639
1138,24.001268097020249
1178,24.00106392490622
1218,24.0006537604738
1258,24.000663199312816
1298,24.001042889541528
1338,24.000784692007696
1378,24.000546501048605
1418,24.000716285081045
1458,24.001168898955794
1498,24.000547203640975
1538,24.00064221653076
1578,24.00072695968395
1618,28.276003421564878
2,1, 7,21, 0,21, 0.00,10.00,SummerDesignDay
8,23.430874963131669
10,101446571.23851727
704,766168.196131842
2,1, 7,21, 0,21,10.00,20.00,SummerDesignDay
8,23.38985327153428
10,101098048.76264589
704,766168.196131842
2,1, 7,21, 0,21,20.00,30.00,SummerDesignDay
8,23.34876959875807
10,100792479.85046666
704,766168.196131842
2,1, 7,21, 0,21,30.00,40.00,SummerDesignDay
8,23.3076141406866
10,100516964.20968108
704,766168.196131842
2,1, 7,21, 0,21,40.00,50.00,SummerDesignDay
8,23.266392150200095
10,100280729.61705558
704,766168.196131842
2,1, 7,21, 0,21,50.00,60.00,SummerDesignDay
8,23.225101800123516
10,100077734.27243497
704,766168.196131842
2,1, 7,21, 0,21, 0.00,60.00,SummerDesignDay
938,24.001277020089434
978,24.0006446392681
1018,24.000491247565767
1058,27.015501403286178
1098,27.029214559242165
1138,24.000453041628189
1178,24.001290455220916
1218,24.000969772162255
1258,24.000981428995
1298,24.001305105325206
1338,24.000899394070346
1378,24.00076770188494
1418,24.00088439968223
1458,24.001466985662245
1498,24.00078978824588
1538,24.001047847270926
1578,24.00067205335745
1618,27.483205892555657
2,1, 7,21, 0,22, 0.00,10.00,SummerDesignDay
8,23.183748128549767
10,99895004.87633939
704,766168.196131842
2,1, 7,21, 0,22,10.00,20.00,SummerDesignDay
8,23.14232268871898
10,99728144.24015539
704,766168.196131842
2,1, 7,21, 0,22,20.00,30.00,SummerDesignDay
8,23.10082967213209
10,99572643.6020665
704,766168.196131842
2,1, 7,21, 0,22,30.00,40.00,SummerDesignDay
8,23.059271895686434
10,99425106.56967281
704,766168.196131842
2,1, 7,21, 0,22,40.00,50.00,SummerDesignDay
8,23.01764200690935
10,99284466.71912004
704,766168.196131842
2,1, 7,21, 0,22,50.00,60.00,SummerDesignDay
8,22.975943224748894
10,99149441.4700058
704,766168.196131842
2,1, 7,21, 0,22, 0.00,60.00,SummerDesignDay
938,24.001321840691664
978,24.000651416373008
1018,24.000653260683678
1058,26.927532578846767
1098,26.93793454651214
1138,24.000422262750065
1178,24.00123766964555
1218,24.001256285750999
1258,24.00132040229398
1298,24.001418239150867
1338,24.000994443155834
1378,24.000937206032267
1418,24.000919063264197
1458,24.00050065178827
1498,24.000947676124495
1538,24.00146665438326
1578,24.00100689189226
1618,26.92141452651251
2,1, 7,21, 0,23, 0.00,10.00,SummerDesignDay
8,22.943465253097018
10,79445882.40301721
704,766168.196131842
2,1, 7,21, 0,23,10.00,20.00,SummerDesignDay
8,22.91094626295795
10,81861989.42768534
704,766168.196131842
2,1, 7,21, 0,23,20.00,30.00,SummerDesignDay
8,22.878381130741823
10,82239920.62570964
704,766168.196131842
2,1, 7,21, 0,23,30.00,40.00,SummerDesignDay
8,22.845777936798176
10,83543278.69422789
704,766168.196131842
2,1, 7,21, 0,23,40.00,50.00,SummerDesignDay
8,22.813132938530747
10,84125142.45868229
704,766168.196131842
2,1, 7,21, 0,23,50.00,60.00,SummerDesignDay
8,22.780441618581024
10,84391260.53421183
704,766168.196131842
2,1, 7,21, 0,23, 0.00,60.00,SummerDesignDay
938,26.492197194571646
978,25.997489935558204
1018,26.031537830584325
1058,26.944979891327497
1098,26.93513878133848
1138,25.650335069761636
1178,25.6849151681177
1218,25.63658668475976
1258,25.86441901265253
1298,26.085403699487214
1338,26.116427359468664
1378,26.078825310849824
1418,26.215908931544865
1458,26.114909116258656
1498,26.142220322830146
1538,26.108988275805105
1578,26.23429634501271
1618,26.70101935403066
2,1, 7,21, 0,24, 0.00,10.00,SummerDesignDay
8,22.7477123587852
10,84453208.33941056
704,766168.196131842
2,1, 7,21, 0,24,10.00,20.00,SummerDesignDay
8,22.7149412932349
10,84530939.48945032
704,766168.196131842
2,1, 7,21, 0,24,20.00,30.00,SummerDesignDay
8,22.682122705825344
10,84590206.5627823
704,766168.196131842
2,1, 7,21, 0,24,30.00,40.00,SummerDesignDay
8,22.649266945139865
10,84628496.05642636
704,766168.196131842
2,1, 7,21, 0,24,40.00,50.00,SummerDesignDay
8,22.616367640006226
10,84660237.01186426
704,766168.196131842
2,1, 7,21, 0,24,50.00,60.00,SummerDesignDay
8,22.58342175892009