Program Version,EnergyPlus, Version 9.0.1-bb7ca4f0da, YMD=2018.11.01 11:32
1,5,Environment Title[],Latitude[deg],Longitude[deg],Time Zone[],Elevation[m]
2,8,Day of Simulation[],Month[],Day of Month[],DST Indicator[1=yes 0=no],Hour[],StartMinute[],EndMinute[],DayType
3,5,Cumulative Day of Simulation[],Month[],Day of Month[],DST Indicator[1=yes 0=no],DayType  ! When Daily Report Variables Requested
4,2,Cumulative Days of Simulation[],Month[]  ! When Monthly Report Variables Requested
5,1,Cumulative Days of Simulation[] ! When Run Period Report Variables Requested
6,1,Calendar Year of Simulation[] ! When Annual Report Variables Requested
7,9,Environment,Site Outdoor Air Drybulb Temperature [C] !Monthly [Value,Min,Day,Hour,Minute,Max,Day,Hour,Minute]
8,1,Environment,Site Outdoor Air Wetbulb Temperature [C] !TimeStep
938,1,CORE_BOTTOM ZN,Zone Air Temperature [C] !Hourly
939,7,CORE_BOTTOM ZN,Zone Air Relative Humidity [%] !Daily [Value,Min,Hour,Minute,Max,Hour,Minute]
978,1,CORE_MID ZN,Zone Air Temperature [C] !Hourly
979,7,CORE_MID ZN,Zone Air Relative Humidity [%] !Daily [Value,Min,Hour,Minute,Max,Hour,Minute]
1018,1,CORE_TOP ZN,Zone Air Temperature [C] !Hourly
1019,7,CORE_TOP ZN,Zone Air Relative Humidity [%] !Daily [Value,Min,Hour,Minute,Max,Hour,Minute]
1058,1,FIRSTFLOOR_PLENUM ZN,Zone Air Temperature [C] !Hourly
1059,7,FIRSTFLOOR_PLENUM ZN,Zone Air Relative Humidity [%] !Daily [Value,Min,Hour,Minute,Max,Hour,Minute]
1098,1,MIDFLOOR_PLENUM ZN,Zone Air Temperature [C] !Hourly
1099,7,MIDFLOOR_PLENUM ZN,Zone Air Relative Humidity [%] !Daily [Value,Min,Hour,Minute,Max,Hour,Minute]
1138,1,PERIMETER_BOT_ZN_1 ZN,Zone Air Temperature [C] !Hourly
1139,7,PERIMETER_BOT_ZN_1 ZN,Zone Air Relative Humidity [%] !Daily [Value,Min,Hour,Minute,Max,Hour,Minute]
1178,1,PERIMETER_BOT_ZN_2 ZN,Zone Air Temperature [C] !Hourly
1179,7,PERIMETER_BOT_ZN_2 ZN,Zone Air Relative Humidity [%] !Daily [Value,Min,Hour,Minute,Max,Hour,Minute]
1218,1,PERIMETER_BOT_ZN_3 ZN,Zone Air Temperature [C] !Hourly
1219,7,PERIMETER_BOT_ZN_3 ZN,Zone Air Relative Humidity [%] !Daily [Value,Min,Hour,Minute,Max,Hour,Minute]
1258,1,PERIMETER_BOT_ZN_4 ZN,Zone Air Temperature [C] !Hourly
1259,7,PERIMETER_BOT_ZN_4 ZN,Zone Air Relative Humidity [%] !Daily [Value,Min,Hour,Minute,Max,Hour,Minute]
1298,1,PERIMETER_MID_ZN_1 ZN,Zone Air Temperature [C] !Hourly
1299,7,PERIMETER_MID_ZN_1 ZN,Zone Air Relative Humidity [%] !Daily [Value,Min,Hour,Minute,Max,Hour,Minute]
1338,1,PERIMETER_MID_ZN_2 ZN,Zone Air Temperature [C] !Hourly
1339,7,PERIMETER_MID_ZN_2 ZN,Zone Air Relative Humidity [%] !Daily [Value,Min,Hour,Minute,Max,Hour,Minute]
1378,1,PERIMETER_MID_ZN_3 ZN,Zone Air Temperature [C] !Hourly
1379,7,PERIMETER_MID_ZN_3 ZN,Zone Air Relative Humidity [%] !Daily [Value,Min,Hour,Minute,Max,Hour,Minute]
1418,1,PERIMETER_MID_ZN_4 ZN,Zone Air Temperature [C] !Hourly
1419,7,PERIMETER_MID_ZN_4 ZN,Zone Air Relative Humidity [%] !Daily [Value,Min,Hour,Minute,Max,Hour,Minute]
1458,1,PERIMETER_TOP_ZN_1 ZN,Zone Air Temperature [C] !Hourly
1459,7,PERIMETER_TOP_ZN_1 ZN,Zone Air Relative Humidity [%] !Daily [Value,Min,Hour,Minute,Max,Hour,Minute]
1498,1,PERIMETER_TOP_ZN_2 ZN,Zone Air Temperature [C] !Hourly
1499,7,PERIMETER_TOP_ZN_2 ZN,Zone Air Relative Humidity [%] !Daily [Value,Min,Hour,Minute,Max,Hour,Minute]
1538,1,PERIMETER_TOP_ZN_3 ZN,Zone Air Temperature [C] !Hourly
1539,7,PERIMETER_TOP_ZN_3 ZN,Zone Air Relative Humidity [%] !Daily [Value,Min,Hour,Minute,Max,Hour,Minute]
1578,1,PERIMETER_TOP_ZN_4 ZN,Zone Air Temperature [C] !Hourly
1579,7,PERIMETER_TOP_ZN_4 ZN,Zone Air Relative Humidity [%] !Daily [Value,Min,Hour,Minute,Max,Hour,Minute]
1618,1,TOPFLOOR_PLENUM ZN,Zone Air Temperature [C] !Hourly
1619,7,TOPFLOOR_PLENUM ZN,Zone Air Relative Humidity [%] !Daily [Value,Min,Hour,Minute,Max,Hour,Minute]
10,1,Electricity:Facility [J] !TimeStep
704,1,Gas:Facility [J] !TimeStep
End of Data Dictionary
1,CHICAGO OHARE INTL AP ANN CLG .4% CONDNS DB=>MWB,  41.98, -87.92,  -6.00, 201.00
2,1, 7,21, 0, 1, 0.00,10.00,SummerDesignDay
8,21.292405530156598
10,77908838.54630587
704,766168.196131842
2,1, 7,21, 0, 1,10.00,20.00,SummerDesignDay
8,21.261960828085749
10,77910705.9566752
704,766168.196131842
2,1, 7,21, 0, 1,20.00,30.00,SummerDesignDay
8,21.2314850100004
10,77908357.42556429
704,766168.196131842
2,1, 7,21, 0, 1,30.00,40.00,SummerDesignDay
8,21.200957900234397
10,77902456.18572903
704,766168.196131842
2,1, 7,21, 0, 1,40.00,50.00,SummerDesignDay
8,21.170403647971147
10,77894747.69136122
704,766168.196131842
2,1, 7,21, 0, 1,50.00,60.00,SummerDesignDay
8,21.13981326633382
10,77884451.38930422
704,766168.196131842
2,1, 7,21, 0, 1, 0.00,60.00,SummerDesignDay
938,26.7000198154624
978,26.699983200025306
1018,26.699983594757187
1058,27.12191460894354
1098,27.10822384137134
1138,26.119115236244686
1178,25.49264313771631
1218,26.540691844458278
1258,25.76929888670794
1298,26.68469688364577
1338,26.105980667074467
1378,26.699445882302784
1418,26.413195245978686
1458,26.534689544879105
1498,26.045807538247187
1538,26.699379416100397
1578,26.26719020965554
1618,26.607670470594639
2,1, 7,21, 0, 2, 0.00,10.00,SummerDesignDay
8,21.11939664133838
10,77887541.130016
704,766168.196131842
2,1, 7,21, 0, 2,10.00,20.00,SummerDesignDay
8,21.098968297299824
10,77898413.82532612
704,766168.196131842
2,1, 7,21, 0, 2,20.00,30.00,SummerDesignDay
8,21.078518554021277
10,77907568.46215743
704,766168.196131842
2,1, 7,21, 0, 2,30.00,40.00,SummerDesignDay
8,21.05805779383344
10,77915458.66854787
704,766168.196131842
2,1, 7,21, 0, 2,40.00,50.00,SummerDesignDay
8,21.0375756719312
10,77921993.79547289
704,766168.196131842
2,1, 7,21, 0, 2,50.00,60.00,SummerDesignDay
8,21.017081539415206
10,77927228.43826863
704,766168.196131842
2,1, 7,21, 0, 2, 0.00,60.00,SummerDesignDay
938,26.700013070097837
978,26.69999646859384
1018,26.699996450673355
1058,27.153448913130004
1098,27.136718588431149
1138,26.132690651326358
1178,25.490530017813048
1218,26.567313969318737
1258,25.736047484368286
1298,26.699398351815025
1338,26.126937564066237
1378,26.699393170707699
1418,26.406030963492325
1458,26.558680882962667
1498,26.054364872074318
1538,26.699321577370815
1578,26.245761927445359
1618,26.637668046706535
2,1, 7,21, 0, 3, 0.00,10.00,SummerDesignDay
8,21.00169730031167
10,77936575.4241387
704,766168.196131842
2,1, 7,21, 0, 3,10.00,20.00,SummerDesignDay
8,20.986303472921795
10,77945575.39220006
704,766168.196131842
2,1, 7,21, 0, 3,20.00,30.00,SummerDesignDay
8,20.970905447932056
10,77953758.20724809
704,766168.196131842
2,1, 7,21, 0, 3,30.00,40.00,SummerDesignDay
8,20.955492745559068
10,77961177.41984111
704,766168.196131842
2,1, 7,21, 0, 3,40.00,50.00,SummerDesignDay
8,20.94007141118511
10,77967887.34888473
704,766168.196131842
2,1, 7,21, 0, 3,50.00,60.00,SummerDesignDay
8,20.924645111828125
10,77973932.33895019
704,766168.196131842
2,1, 7,21, 0, 3, 0.00,60.00,SummerDesignDay
938,26.70000899195013
978,26.70000201259857
1018,26.700001884860837
1058,27.182737540458196
1098,27.16160654129617
1138,26.13044260916341
1178,25.476064710281095
1218,26.577376491758156
1258,25.692530533818425
1298,26.699374646079887
1338,26.13134264396038
1378,26.69937269635859
1418,26.383514144942227
1458,26.561246235517065
1498,26.044400094358769
1538,26.699301420840159
1578,26.20769263701626
1618,26.635596888411443
2,1, 7,21, 0, 4, 0.00,10.00,SummerDesignDay
8,20.909205468285163
10,77979340.42773888
704,766168.196131842
2,1, 7,21, 0, 4,10.00,20.00,SummerDesignDay
8,20.89375644446627
10,77984143.44077429
704,766168.196131842
2,1, 7,21, 0, 4,20.00,30.00,SummerDesignDay
8,20.878302617175487
10,77988370.35730893
704,766168.196131842
2,1, 7,21, 0, 4,30.00,40.00,SummerDesignDay
8,20.862834696278875
10,77992036.12509239
704,766168.196131842
2,1, 7,21, 0, 4,40.00,50.00,SummerDesignDay
8,20.84736758914109
10,77995166.57483274
704,766168.196131842
2,1, 7,21, 0, 4,50.00,60.00,SummerDesignDay
8,20.83187595308267
10,77997771.12730393
704,766168.196131842
2,1, 7,21, 0, 4, 0.00,60.00,SummerDesignDay
938,26.700007162408185
978,26.700004147971055
1018,26.700004021510649
1058,27.210456483670446
1098,27.183696248617254
1138,26.122885123872139
1178,25.457994055373424
1218,26.5815047159924
1258,25.648507562019377
1298,26.69936722395262
1338,26.13026216894561
1378,26.69936577576922
1418,26.357836668288497
1458,26.555278807373154
1498,26.02754477604557
1538,26.699296335407696
1578,26.165366170631179
1618,26.62248047205585
2,1, 7,21, 0, 5, 0.00,10.00,SummerDesignDay
8,20.82154626521223
10,78004998.63187212
704,766168.196131842
2,1, 7,21, 0, 5,10.00,20.00,SummerDesignDay
8,20.811212600492369
10,78012322.17951122
704,766168.196131842
2,1, 7,21, 0, 5,20.00,30.00,SummerDesignDay
8,20.800879423352016
10,78019244.5439794
704,766168.196131842
2,1, 7,21, 0, 5,30.00,40.00,SummerDesignDay
8,20.79053773449398
10,74902993.59006307
704,766168.196131842
2,1, 7,21, 0, 5,40.00,50.00,SummerDesignDay
8,20.780191971271316
10,74250147.04153535
704,766168.196131842
2,1, 7,21, 0, 5,50.00,60.00,SummerDesignDay
8,20.769841693173647
10,72314346.38264504
704,766168.196131842
2,1, 7,21, 0, 5, 0.00,60.00,SummerDesignDay
938,26.700006331484919
978,26.700004831406493
1018,26.70000473798873
1058,27.237285833991029
1098,27.20505902754043
1138,26.125997169256299
1178,25.509601848502319
1218,26.616131334792838
1258,25.619179428405479
1298,26.69935558687222
1338,26.198842168371347
1378,26.699329973623425
1418,26.345740107913099
1458,26.558335073575717
1498,26.07906785727481
1538,26.699255256910744
1578,26.135967742204035
1618,26.608012347333614
2,1, 7,21, 0, 6, 0.00,10.00,SummerDesignDay
8,20.780191971271316
10,69659010.26770905
704,766168.196131842
2,1, 7,21, 0, 6,10.00,20.00,SummerDesignDay
8,20.79053773449398
10,68818170.07770446
704,766168.196131842
2,1, 7,21, 0, 6,20.00,30.00,SummerDesignDay
8,20.800879423352016
10,68397075.40613732
704,766168.196131842
2,1, 7,21, 0, 6,30.00,40.00,SummerDesignDay
8,20.811212600492369
10,68001542.4852771
704,766168.196131842
2,1, 7,21, 0, 6,40.00,50.00,SummerDesignDay
8,20.82154626521223
10,67880363.64764181
704,766168.196131842
2,1, 7,21, 0, 6,50.00,60.00,SummerDesignDay
8,20.83187595308267
10,67880363.64764181
704,766168.196131842
2,1, 7,21, 0, 6, 0.00,60.00,SummerDesignDay
938,28.947601472566807
978,27.679475316947003
1018,27.603791932706615
1058,27.34061115421015
1098,27.286745066212434
1138,26.202829561314976
1178,26.949056274234804
1218,27.054192284206086
1258,25.68164147631823
1298,26.830489325466635
1338,27.592641357002596
1378,27.449494216879104
1418,26.405642910697109
1458,26.630836578770546
1498,27.45612444615466
1538,27.282607389868319
1578,26.185192905806649
1618,26.747478051568519
2,1, 7,21, 0, 7, 0.00,10.00,SummerDesignDay
8,20.867991483822359
10,90399362.24378577
704,766168.196131842
2,1, 7,21, 0, 7,10.00,20.00,SummerDesignDay
8,20.904056518827426
10,86914197.78870848
704,766168.196131842
2,1, 7,21, 0, 7,20.00,30.00,SummerDesignDay
8,20.94007141118511
10,82097709.33254718
704,766168.196131842
2,1, 7,21, 0, 7,30.00,40.00,SummerDesignDay
8,20.976035719324256
10,84323996.416106
704,766168.196131842
2,1, 7,21, 0, 7,40.00,50.00,SummerDesignDay
8,21.011954667733219
10,82681981.06797065
704,766168.196131842
2,1, 7,21, 0, 7,50.00,60.00,SummerDesignDay
8,21.04781854686137
10,82452749.90592759
704,766168.196131842
2,1, 7,21, 0, 7, 0.00,60.00,SummerDesignDay
938,25.281294083830927
978,25.16048787557757
1018,25.1491576003818
1058,27.476593796253075
1098,27.426158848049395
1138,25.016575500743739
1178,25.065905564006049
1218,25.094037238451695
1258,25.00244947776501
1298,25.033086991946978
1338,25.08496959404211
1378,25.1162552454055
1418,25.007322550709679
1458,25.02484796372774
1498,25.079725017730995
1538,25.08998346306519
1578,25.006102706217594
1618,27.259535298613178
2,1, 7,21, 0, 8, 0.00,10.00,SummerDesignDay
8,21.13471110025821
10,97061550.32680972
704,766168.196131842
2,1, 7,21, 0, 8,10.00,20.00,SummerDesignDay
8,21.221309664954885
10,97482647.3105977
704,766168.196131842
2,1, 7,21, 0, 8,20.00,30.00,SummerDesignDay
8,21.307616677758387
10,97239749.57211335
704,766168.196131842
2,1, 7,21, 0, 8,30.00,40.00,SummerDesignDay
8,21.393633962021306
10,95423055.6917059
704,766168.196131842
2,1, 7,21, 0, 8,40.00,50.00,SummerDesignDay
8,21.479363454901848
10,95051361.25025149
704,766168.196131842
2,1, 7,21, 0, 8,50.00,60.00,SummerDesignDay
8,21.56480572828825
10,94984915.65251909
704,766168.196131842
2,1, 7,21, 0, 8, 0.00,60.00,SummerDesignDay
938,24.180043168728948
978,24.169621911469596
1018,24.160797971089143
1058,27.3861462321404
1098,27.365084186535353
1138,24.014771625294924
1178,24.07855516254016
1218,24.087953227746053
1258,24.014689181642934
1298,24.017079695195226
1338,24.085208220578026
1378,24.094223249330317
1418,24.017071866811596
1458,24.016928943746597
1498,24.08006676943685
1538,24.048633704089239
1578,24.01689785450598
1618,27.596708659374689
2,1, 7,21, 0, 9, 0.00,10.00,SummerDesignDay
8,21.659959494127649
10,94943870.04999359
704,766168.196131842
2,1, 7,21, 0, 9,10.00,20.00,SummerDesignDay
8,21.754763580187868
10,95155020.57967223
704,766168.196131842
2,1, 7,21, 0, 9,20.00,30.00,SummerDesignDay
8,21.849216689035449
10,95467595.79992716
704,766168.196131842
2,1, 7,21, 0, 9,30.00,40.00,SummerDesignDay
8,21.94331558480392
10,95846254.4879723
704,766168.196131842
2,1, 7,21, 0, 9,40.00,50.00,SummerDesignDay
8,22.03707130951595
10,96264086.47180103
704,766168.196131842
2,1, 7,21, 0, 9,50.00,60.00,SummerDesignDay
8,22.13048294716832
10,96735556.35129015
704,766168.196131842
2,1, 7,21, 0, 9, 0.00,60.00,SummerDesignDay
938,23.99938254537257
978,23.999354545237808
1018,23.999349135138848
1058,27.344216016361498
1098,27.327173550315235
1138,23.99922235811834
1178,23.999410754118487
1218,23.999272762228814
1258,23.999254751759027
1298,23.999231795804844
1338,23.999380853063163
1378,23.999266611329987
1418,23.999254308218885
1458,23.999195811634224
1498,23.999346609145055
1538,23.999232996406488
1578,23.999216858976117
1618,28.142215411447926
2,1, 7,21, 0,10, 0.00,10.00,SummerDesignDay
8,22.213769814432565
10,97165244.12513159
704,766168.196131842
2,1, 7,21, 0,10,10.00,20.00,SummerDesignDay
8,22.29678365659492
10,97600639.59448944
704,766168.196131842
2,1, 7,21, 0,10,20.00,30.00,SummerDesignDay
8,22.379526518080718
10,98027022.05807962
704,766168.196131842
2,1, 7,21, 0,10,30.00,40.00,SummerDesignDay
8,22.461998883090386
10,98442449.19433524
704,766168.196131842
2,1, 7,21, 0,10,40.00,50.00,SummerDesignDay
8,22.54420357090447
10,98841812.44530584
704,766168.196131842
2,1, 7,21, 0,10,50.00,60.00,SummerDesignDay
8,22.626140889876245
10,99221643.7232147
704,766168.196131842
2,1, 7,21, 0,10, 0.00,60.00,SummerDesignDay
938,23.999340333876643
978,23.99934815121588
1018,23.999343265938948
1058,27.355605360760128
1098,27.336987599351713
1138,23.999243878116194
1178,23.99939370288604
1218,23.9992824099467
1258,23.999271978292968
1298,23.999229850083244
1338,23.999351376630658
1378,23.999258352511345
1418,23.999250954903095
1458,23.999199250597923
1498,23.999323614370124
1538,23.999226530735489
1578,23.999217112006055
1618,28.830145469761438
2,1, 7,21, 0,11, 0.00,10.00,SummerDesignDay
8,22.698217126852719
10,99531373.84204607
704,766168.196131842
2,1, 7,21, 0,11,10.00,20.00,SummerDesignDay
8,22.770087609245694
10,99815596.71985229
704,766168.196131842
2,1, 7,21, 0,11,20.00,30.00,SummerDesignDay
8,22.841753902583265
10,100077240.77130459
704,766168.196131842
2,1, 7,21, 0,11,30.00,40.00,SummerDesignDay
8,22.913216778184393
10,100319168.43895875
704,766168.196131842
2,1, 7,21, 0,11,40.00,50.00,SummerDesignDay
8,22.984480922747989
10,100545485.95357327
704,766168.196131842
2,1, 7,21, 0,11,50.00,60.00,SummerDesignDay
8,23.055539233117515
10,100763313.38678707
704,766168.196131842
2,1, 7,21, 0,11, 0.00,60.00,SummerDesignDay
938,23.99934981076784
978,23.999354627759293
1018,23.999352893138508
1058,27.364121228276266
1098,27.345648948860814
1138,23.9992922885819
1178,23.999416604130656
1218,23.999298129211537
1258,23.999291260135125
1298,23.999268562760038
1338,23.99937393537235
1378,23.999272978721309
1418,23.99926750716855
1458,23.99924263744261
1498,23.999346748390093
1538,23.999244802777964
1578,23.999237740237587
1618,29.505095841769646
2,1, 7,21, 0,12, 0.00,10.00,SummerDesignDay
8,23.102801503400955
10,100850341.5249122
704,766168.196131842
2,1, 7,21, 0,12,10.00,20.00,SummerDesignDay
8,23.149970529930298
10,100937028.98719366
704,766168.196131842
2,1, 7,21, 0,12,20.00,30.00,SummerDesignDay
8,23.197054535495359
10,101033047.26232614
704,766168.196131842
2,1, 7,21, 0,12,30.00,40.00,SummerDesignDay
8,23.24405091760279
10,101155345.03825979
704,766168.196131842
2,1, 7,21, 0,12,40.00,50.00,SummerDesignDay
8,23.290959239877084
10,101313901.24204783
704,5071965.0652517289
2,1, 7,21, 0,12,50.00,60.00,SummerDesignDay
8,23.337780161397366
10,101539951.1987784
704,766168.196131842
2,1, 7,21, 0,12, 0.00,60.00,SummerDesignDay
938,23.999361614448977
978,23.999364834912499
1018,23.99936720113578
1058,27.363390563611575
1098,27.347871736998145
1138,23.99934006860758
1178,23.999416986626398
1218,23.999315276947553
1258,23.99931160979955
1298,23.99930961810018
1338,23.99937398890134
1378,23.99928903572958
1418,23.99928558932309
1458,23.99928660217682
1498,23.999346792636886
1538,23.99926467555648
1578,23.999259827697359
1618,30.053191781168719
2,1, 7,21, 0,13, 0.00,10.00,SummerDesignDay
8,23.375168696321454
10,101830825.79978924
704,766168.196131842
2,1, 7,21, 0,13,10.00,20.00,SummerDesignDay
8,23.412509317763463
10,102173542.31616207
704,5150959.771128045
2,1, 7,21, 0,13,20.00,30.00,SummerDesignDay
8,23.44978183331926
10,102562817.20371227
704,766168.196131842
2,1, 7,21, 0,13,30.00,40.00,SummerDesignDay
8,23.48701638811906
10,102984888.68999295
704,5164647.334389541
2,1, 7,21, 0,13,40.00,50.00,SummerDesignDay
8,23.52417733438429
10,103429472.72110273
704,766168.196131842
2,1, 7,21, 0,13,50.00,60.00,SummerDesignDay
8,23.561301163043504
10,103897745.60782437
704,766168.196131842
2,1, 7,21, 0,13, 0.00,60.00,SummerDesignDay
938,23.999341351946304
978,23.999349383203325
1018,23.999354200034984
1058,27.356376343520897
1098,27.34740763662641
1138,23.9993440486155
1178,23.999349839288525
1218,23.999303750292325
1258,23.99925885804284
1298,23.999308548732928
1338,23.999310696591807
1378,23.999274776914559
1418,23.99923640025393
1458,23.999286298305095
1498,23.99928538167958
1538,23.999252654602925
1578,23.999216476285146
1618,30.41685198843525
2,1, 7,21, 0,14, 0.00,10.00,SummerDesignDay
8,23.584468652232446
10,104264486.40287324
704,5123260.671147959
2,1, 7,21, 0,14,10.00,20.00,SummerDesignDay
8,23.607614591370639
10,104445895.0506777
704,766168.196131842
2,1, 7,21, 0,14,20.00,30.00,SummerDesignDay
8,23.630734203455029
10,104598919.53258522
704,4476877.724983801
2,1, 7,21, 0,14,30.00,40.00,SummerDesignDay
8,23.65384967253545
10,104722438.28862797
704,1424597.6168323057
2,1, 7,21, 0,14,40.00,50.00,SummerDesignDay
8,23.676931270816597
10,104816767.75836183
704,766168.196131842
2,1, 7,21, 0,14,50.00,60.00,SummerDesignDay
8,23.699991650503447
10,104871545.53099792
704,5128329.599000699
2,1, 7,21, 0,14, 0.00,60.00,SummerDesignDay
938,23.999324587540185
978,23.99933322634787
1018,23.999341452048247
1058,27.35492104069604
1098,27.352751823948365
1138,23.999345495899946
1178,23.999321801044947
1218,23.99929223751835
1258,23.999235734584123
1298,23.999307752211068
1338,23.999285972392597
1378,23.999262835807384
1418,23.999213123571207
1458,23.99928589257709
1498,23.999263291036784
1538,23.99924320410022
1578,23.999197959402456
1618,30.609005450977127
2,1, 7,21, 0,15, 0.00,10.00,SummerDesignDay
8,23.699991650503447
10,104800259.14830379
704,766168.196131842
2,1, 7,21, 0,15,10.00,20.00,SummerDesignDay
8,23.699991650503447
10,104962453.26591604
704,766168.196131842
2,1, 7,21, 0,15,20.00,30.00,SummerDesignDay
8,23.699991650503447
10,104914105.4800161
704,766168.196131842
2,1, 7,21, 0,15,30.00,40.00,SummerDesignDay
8,23.699991650503447
10,104888254.8263819
704,766168.196131842
2,1, 7,21, 0,15,40.00,50.00,SummerDesignDay
8,23.699991650503447
10,104867096.8841405
704,4939904.814729621
2,1, 7,21, 0,15,50.00,60.00,SummerDesignDay
8,23.699991650503447
10,104848294.14860206
704,766168.196131842
2,1, 7,21, 0,15, 0.00,60.00,SummerDesignDay
938,24.02058597177241
978,24.014570943025178
1018,24.045672223394985
1058,27.361247840977055
1098,27.366811374755245
1138,24.020290096874267
1178,24.017560537080884
1218,24.037979313707056
1258,24.02962000307747
1298,24.022886514744319
1338,24.02039365987137
1378,24.039281133218159
1418,24.032075136334
1458,24.024597162499963
1498,24.02218246287457
1538,24.048724955906807
1578,24.033601734437608
1618,30.625003715250388
2,1, 7,21, 0,16, 0.00,10.00,SummerDesignDay
8,23.672307358563665
10,104740659.51195796
704,766168.196131842
2,1, 7,21, 0,16,10.00,20.00,SummerDesignDay
8,23.64460948071794
10,104637739.06713264
704,766168.196131842
2,1, 7,21, 0,16,20.00,30.00,SummerDesignDay
8,23.61686844545739
10,104538720.22393526
704,766168.196131842
2,1, 7,21, 0,16,30.00,40.00,SummerDesignDay
8,23.589091188236055
10,104443099.6978264
704,4940703.130749963
2,1, 7,21, 0,16,40.00,50.00,SummerDesignDay
8,23.561301163043504
10,104350487.12417104
704,766168.196131842
2,1, 7,21, 0,16,50.00,60.00,SummerDesignDay
8,23.533467080370163
10,104260470.72380854
704,766168.196131842
2,1, 7,21, 0,16, 0.00,60.00,SummerDesignDay
938,24.034055346094573
978,24.02351641008106
1018,24.09799350637469
1058,27.366422601588938
1098,27.380175230041546
1138,24.030402657038655
1178,24.027751138154924
1218,24.042108034254445
1258,24.077237941062127
1298,24.035125365531767
1338,24.03276219781719
1378,24.04784093642463
1418,24.085827695933177
1458,24.038297601538763
1498,24.035978264216923
1538,24.059610802154283
1578,24.097462775788445
1618,30.452526165140005
2,1, 7,21, 0,17, 0.00,10.00,SummerDesignDay
8,23.496315172028504
10,103952198.48226996
704,766168.196131842
2,1, 7,21, 0,17,10.00,20.00,SummerDesignDay
8,23.459098962673627
10,103515706.64148326
704,5047851.483809647
2,1, 7,21, 0,17,20.00,30.00,SummerDesignDay
8,23.421835869543999
10,103029391.1150087
704,766168.196131842
2,1, 7,21, 0,17,30.00,40.00,SummerDesignDay
8,23.384509217485939
10,102433581.4883161
704,766168.196131842
2,1, 7,21, 0,17,40.00,50.00,SummerDesignDay
8,23.34713053816139
10,102055184.41884034
704,766168.196131842
2,1, 7,21, 0,17,50.00,60.00,SummerDesignDay
8,23.309695989572697
10,101814277.54507853
704,5024210.811557674
2,1, 7,21, 0,17, 0.00,60.00,SummerDesignDay
938,23.99965508605946
978,23.99947313461172
1018,24.006680954976998
1058,27.3530662009826
1098,27.374896254089994
1138,23.999549949919758
1178,23.999517763184817
1218,23.999463648136737
1258,24.05824088668498
1298,23.999607425444439
1338,23.999577636930128
1378,23.999516300061968
1418,24.061372059070196
1458,23.99966183858696
1498,23.999630485706289
1538,23.999580014532854
1578,24.065276576406018
1618,30.052253796531276
2,1, 7,21, 0,18, 0.00,10.00,SummerDesignDay
8,23.262826699708766
10,101556832.63755049
704,766168.196131842
2,1, 7,21, 0,18,10.00,20.00,SummerDesignDay
8,23.21586584854855
10,101366094.31167828
704,766168.196131842
2,1, 7,21, 0,18,20.00,30.00,SummerDesignDay
8,23.168816376440029
10,101231034.55015628
704,766168.196131842
2,1, 7,21, 0,18,30.00,40.00,SummerDesignDay
8,23.12167829542215
10,98556720.85252847
704,766168.196131842
2,1, 7,21, 0,18,40.00,50.00,SummerDesignDay
8,23.074452033295477
10,97646024.75534113
704,766168.196131842
2,1, 7,21, 0,18,50.00,60.00,SummerDesignDay
8,23.02714043821021
10,96965603.0348726
704,2264547.310772047
2,1, 7,21, 0,18, 0.00,60.00,SummerDesignDay
938,23.999381605672949
978,23.99937155304534
1018,23.99939472559258
1058,27.3200348839899
1098,27.34704990275038
1138,23.99936994449006
1178,23.999367344415846
1218,23.999328641823238
1258,23.999582590519365
1298,23.99934204480059
1338,23.99933861905394
1378,23.999308327387028
1418,23.999575174016728
1458,23.999328847471316
1498,23.999324607425348
1538,23.999299848732048
1578,23.999559195337367
1618,29.45058715055332
2,1, 7,21, 0,19, 0.00,10.00,SummerDesignDay
8,22.955998030729086
10,95999850.05299317
704,3363008.829673346
2,1, 7,21, 0,19,10.00,20.00,SummerDesignDay
8,22.884656963830858
10,95445829.3925687
704,766168.196131842
2,1, 7,21, 0,19,20.00,30.00,SummerDesignDay
8,22.813112648278538
10,94968771.65257837
704,766168.196131842
2,1, 7,21, 0,19,30.00,40.00,SummerDesignDay
8,22.74136475535084
10,93889781.11497529
704,766168.196131842
2,1, 7,21, 0,19,40.00,50.00,SummerDesignDay
8,22.669412429768046
10,93844386.24471198
704,766168.196131842
2,1, 7,21, 0,19,50.00,60.00,SummerDesignDay
8,22.597249180691447
10,93464397.93850769
704,766168.196131842
2,1, 7,21, 0,19, 0.00,60.00,SummerDesignDay
938,23.999432750973427
978,23.999422437381054
1018,23.99944346627673
1058,27.263692371894597
1098,27.292466954626478
1138,23.999403310931898
1178,23.999399551036914
1218,23.99940467120693
1258,23.999522680299579
1298,23.999374772281685
1338,23.999370389816904
1378,23.99937973654008
1418,23.999484437197926
1458,23.999361076370673
1498,23.99935586087763
1538,23.999366880351074
1578,23.99946428447547
1618,28.708062411140096
2,1, 7,21, 0,20, 0.00,10.00,SummerDesignDay
8,22.54420357090447
10,94453815.78522183
704,766168.196131842
2,1, 7,21, 0,20,10.00,20.00,SummerDesignDay
8,22.49104180927024
10,98460705.77641194
704,766168.196131842
2,1, 7,21, 0,20,20.00,30.00,SummerDesignDay
8,22.437767475426619
10,97777970.5817766
704,766168.196131842
2,1, 7,21, 0,20,30.00,40.00,SummerDesignDay
8,22.384385775235136
10,97223211.6808502
704,766168.196131842
2,1, 7,21, 0,20,40.00,50.00,SummerDesignDay
8,22.33088606837434
10,96727221.9984651
704,766168.196131842
2,1, 7,21, 0,20,50.00,60.00,SummerDesignDay
8,22.277273112035258
10,96268620.97530268
704,766168.196131842
2,1, 7,21, 0,20, 0.00,60.00,SummerDesignDay
938,23.999448538918388
978,23.999442811204735
1018,23.99945992367965
1058,27.17812859777982
1098,27.20408835788079
1138,23.9994083321691
1178,23.99940537219958
1218,23.99943468480596
1258,23.999509808855849
1298,23.999379249046727
1338,23.99937615873789
1378,23.999398370043197
1418,23.99946608887508
1458,23.999364849989634
1498,23.999360788363025
1538,23.999382870326405
1578,23.999445261578385
1618,27.836198311551667
2,1, 7,21, 0,21, 0.00,10.00,SummerDesignDay
8,22.233324669547739
10,95872135.17947196
704,766168.196131842
2,1, 7,21, 0,21,10.00,20.00,SummerDesignDay
8,22.189299394088044
10,95501998.04066615
704,766168.196131842
2,1, 7,21, 0,21,20.00,30.00,SummerDesignDay
8,22.145202107551495
10,95153004.64377873
704,766168.196131842
2,1, 7,21, 0,21,30.00,40.00,SummerDesignDay
8,22.101023102268618
10,94822128.45590808
704,766168.196131842
2,1, 7,21, 0,21,40.00,50.00,SummerDesignDay
8,22.056767334331388
10,94506923.69485678
704,766168.196131842
2,1, 7,21, 0,21,50.00,60.00,SummerDesignDay
8,22.012434213349633
10,94205381.73806082
704,766168.196131842
2,1, 7,21, 0,21, 0.00,60.00,SummerDesignDay
938,23.999393151648815
978,23.999397475135188
1018,23.999410124961448
1058,27.080055355455135
1098,27.10451754805445
1138,23.999357093187986
1178,23.99935585313013
1218,23.99936018916379
1258,23.99940065553716
1298,23.999327217653286
1338,23.999325032171219
1378,23.999327497409387
1418,23.99936071020194
1458,23.99931054948779
1498,23.999307288925356
1538,23.999311129699249
1578,23.999339990395538
1618,27.068107929737939
2,1, 7,21, 0,22, 0.00,10.00,SummerDesignDay
8,21.96802372811924
10,93915860.1560105
704,766168.196131842
2,1, 7,21, 0,22,10.00,20.00,SummerDesignDay
8,21.92353584370884
10,93637149.65259488
704,766168.196131842
2,1, 7,21, 0,22,20.00,30.00,SummerDesignDay
8,21.878969210749209
10,93369191.71161689
704,766168.196131842
2,1, 7,21, 0,22,30.00,40.00,SummerDesignDay
8,21.834324395018095
10,93109504.15526627
704,766168.196131842
2,1, 7,21, 0,22,40.00,50.00,SummerDesignDay
8,21.789601824015393
10,92857236.74101432
704,766168.196131842
2,1, 7,21, 0,22,50.00,60.00,SummerDesignDay
8,21.744800023061559
10,92611987.53760417
704,766168.196131842
2,1, 7,21, 0,22, 0.00,60.00,SummerDesignDay
938,23.99937432700838
978,23.9993775805288
1018,23.999386510758055
1058,26.98771772456786
1098,27.008040196261864
1138,23.999332407649388
1178,23.999331966481987
1218,23.999329895602988
1258,23.999361531282024
1298,23.99930598684354
1338,23.99930433143548
1378,23.999302957840727
1418,23.999327412430206
1458,23.999286629244286
1498,23.99928385451427
1538,23.999284159526839
1578,23.999305205408317
1618,26.538572065351859
2,1, 7,21, 0,23, 0.00,10.00,SummerDesignDay
8,21.709900736545106
10,78927411.74449115
704,766168.196131842
2,1, 7,21, 0,23,10.00,20.00,SummerDesignDay
8,21.67495304215166
10,78407027.2990825
704,766168.196131842
2,1, 7,21, 0,23,20.00,30.00,SummerDesignDay
8,21.639958113829917
10,78667502.65577807
704,766168.196131842
2,1, 7,21, 0,23,30.00,40.00,SummerDesignDay
8,21.604914610606316
10,78966982.9721214
704,766168.196131842
2,1, 7,21, 0,23,40.00,50.00,SummerDesignDay
8,21.569819097467279
10,79953528.88252579
704,766168.196131842
2,1, 7,21, 0,23,50.00,60.00,SummerDesignDay
8,21.534679356042316
10,79312608.56989877
704,766168.196131842
2,1, 7,21, 0,23, 0.00,60.00,SummerDesignDay
938,26.50012880481376
978,26.154005418238599
1018,26.146346057084398
1058,26.97798863426657
1098,26.968186593075605
1138,25.465326293828374
1178,25.065350132347477
1218,25.70385904629806
1258,25.327951817186717
1298,25.897572683691853
1338,25.519835783465767
1378,26.076459179011406
1418,25.803439339492515
1458,25.817975207005558
1498,25.497486537637575
1538,26.011405607072424
1578,25.72284530570126
1618,26.3211237362402
2,1, 7,21, 0,24, 0.00,10.00,SummerDesignDay
8,21.49949053597118
10,79440696.86024462
704,766168.196131842
2,1, 7,21, 0,24,10.00,20.00,SummerDesignDay
8,21.464253674051844
10,79530707.39425828
704,766168.196131842
2,1, 7,21, 0,24,20.00,30.00,SummerDesignDay
8,21.428968817991497
10,79577996.19882019
704,766168.196131842
2,1, 7,21, 0,24,30.00,40.00,SummerDesignDay
8,21.393633962021306
10,79600589.78141992
704,766168.196131842
2,1, 7,21, 0,24,40.00,50.00,SummerDesignDay
8,21.3582466871985