Program Version,EnergyPlus, Version 9.0.1-bb7ca4f0da, YMD=2018.11.01 11:33
1,5,Environment Title[],Latitude[deg],Longitude[deg],Time Zone[],Elevation[m]
2,8,Day of Simulation[],Month[],Day of Month[],DST Indicator[1=yes 0=no],Hour[],StartMinute[],EndMinute[],DayType
3,5,Cumulative Day of Simulation[],Month[],Day of Month[],DST Indicator[1=yes 0=no],DayType  ! When Daily Report Variables Requested
4,2,Cumulative Days of Simulation[],Month[]  ! When Monthly Report Variables Requested
5,1,Cumulative Days of Simulation[] ! When Run Period Report Variables Requested
6,1,Calendar Year of Simulation[] ! When Annual Report Variables Requested
7,9,Environment,Site Outdoor Air Drybulb Temperature [C] !Monthly [Value,Min,Day,Hour,Minute,Max,Day,Hour,Minute]
8,1,Environment,Site Outdoor Air Wetbulb Temperature [C] !TimeStep
938,1,CORE_BOTTOM ZN,Zone Air Temperature [C] !Hourly
939,7,CORE_BOTTOM ZN,Zone Air Relative Humidity [%] !Daily [Value,Min,Hour,Minute,Max,Hour,Minute]
978,1,CORE_MID ZN,Zone Air Temperature [C] !Hourly
979,7,CORE_MID ZN,Zone Air Relative Humidity [%] !Daily [Value,Min,Hour,Minute,Max,Hour,Minute]
1018,1,CORE_TOP ZN,Zone Air Temperature [C] !Hourly
1019,7,CORE_TOP ZN,Zone Air Relative Humidity [%] !Daily [Value,Min,Hour,Minute,Max,Hour,Minute]
1058,1,FIRSTFLOOR_PLENUM ZN,Zone Air Temperature [C] !Hourly
1059,7,FIRSTFLOOR_PLENUM ZN,Zone Air Relative Humidity [%] !Daily [Value,Min,Hour,Minute,Max,Hour,Minute]
1098,1,MIDFLOOR_PLENUM ZN,Zone Air Temperature [C] !Hourly
1099,7,MIDFLOOR_PLENUM ZN,Zone Air Relative Humidity [%] !Daily [Value,Min,Hour,Minute,Max,Hour,Minute]
1138,1,PERIMETER_BOT_ZN_1 ZN,Zone Air Temperature [C] !Hourly
1139,7,PERIMETER_BOT_ZN_1 ZN,Zone Air Relative Humidity [%] !Daily [Value,Min,Hour,Minute,Max,Hour,Minute]
1178,1,PERIMETER_BOT_ZN_2 ZN,Zone Air Temperature [C] !Hourly
1179,7,PERIMETER_BOT_ZN_2 ZN,Zone Air Relative Humidity [%] !Daily [Value,Min,Hour,Minute,Max,Hour,Minute]
1218,1,PERIMETER_BOT_ZN_3 ZN,Zone Air Temperature [C] !Hourly
1219,7,PERIMETER_BOT_ZN_3 ZN,Zone Air Relative Humidity [%] !Daily [Value,Min,Hour,Minute,Max,Hour,Minute]
1258,1,PERIMETER_BOT_ZN_4 ZN,Zone Air Temperature [C] !Hourly
1259,7,PERIMETER_BOT_ZN_4 ZN,Zone Air Relative Humidity [%] !Daily [Value,Min,Hour,Minute,Max,Hour,Minute]
1298,1,PERIMETER_MID_ZN_1 ZN,Zone Air Temperature [C] !Hourly
1299,7,PERIMETER_MID_ZN_1 ZN,Zone Air Relative Humidity [%] !Daily [Value,Min,Hour,Minute,Max,Hour,Minute]
1338,1,PERIMETER_MID_ZN_2 ZN,Zone Air Temperature [C] !Hourly
1339,7,PERIMETER_MID_ZN_2 ZN,Zone Air Relative Humidity [%] !Daily [Value,Min,Hour,Minute,Max,Hour,Minute]
1378,1,PERIMETER_MID_ZN_3 ZN,Zone Air Temperature [C] !Hourly
1379,7,PERIMETER_MID_ZN_3 ZN,Zone Air Relative Humidity [%] !Daily [Value,Min,Hour,Minute,Max,Hour,Minute]
1418,1,PERIMETER_MID_ZN_4 ZN,Zone Air Temperature [C] !Hourly
1419,7,PERIMETER_MID_ZN_4 ZN,Zone Air Relative Humidity [%] !Daily [Value,Min,Hour,Minute,Max,Hour,Minute]
1458,1,PERIMETER_TOP_ZN_1 ZN,Zone Air Temperature [C] !Hourly
1459,7,PERIMETER_TOP_ZN_1 ZN,Zone Air Relative Humidity [%] !Daily [Value,Min,Hour,Minute,Max,Hour,Minute]
1498,1,PERIMETER_TOP_ZN_2 ZN,Zone Air Temperature [C] !Hourly
1499,7,PERIMETER_TOP_ZN_2 ZN,Zone Air Relative Humidity [%] !Daily [Value,Min,Hour,Minute,Max,Hour,Minute]
1538,1,PERIMETER_TOP_ZN_3 ZN,Zone Air Temperature [C] !Hourly
1539,7,PERIMETER_TOP_ZN_3 ZN,Zone Air Relative Humidity [%] !Daily [Value,Min,Hour,Minute,Max,Hour,Minute]
1578,1,PERIMETER_TOP_ZN_4 ZN,Zone Air Temperature [C] !Hourly
1579,7,PERIMETER_TOP_ZN_4 ZN,Zone Air Relative Humidity [%] !Daily [Value,Min,Hour,Minute,Max,Hour,Minute]
1618,1,TOPFLOOR_PLENUM ZN,Zone Air Temperature [C] !Hourly
1619,7,TOPFLOOR_PLENUM ZN,Zone Air Relative Humidity [%] !Daily [Value,Min,Hour,Minute,Max,Hour,Minute]
10,1,Electricity:Facility [J] !TimeStep
704,1,Gas:Facility [J] !TimeStep
End of Data Dictionary
1,HOUSTON BUSH INTERCONTINENTAL ANN CLG .4% CONDNS DB=>MWB,  30.00, -95.37,  -6.00,  29.00
2,1, 7,21, 0, 1, 0.00,10.00,SummerDesignDay
8,22.55515166200166
10,84835093.83963844
704,766168.196131842
2,1, 7,21, 0, 1,10.00,20.00,SummerDesignDay
8,22.526850134727679
10,84857853.92317759
704,766168.196131842
2,1, 7,21, 0, 1,20.00,30.00,SummerDesignDay
8,22.498517194785639
10,84880077.34888616
704,766168.196131842
2,1, 7,21, 0, 1,30.00,40.00,SummerDesignDay
8,22.47015203492528
10,84896752.41106732
704,766168.196131842
2,1, 7,21, 0, 1,40.00,50.00,SummerDesignDay
8,22.441756223232479
10,84913312.97836428
704,766168.196131842
2,1, 7,21, 0, 1,50.00,60.00,SummerDesignDay
8,22.41333327947745
10,84927121.83086
704,766168.196131842
2,1, 7,21, 0, 1, 0.00,60.00,SummerDesignDay
938,26.701572465036624
978,26.700227848260679
1018,26.700275505125917
1058,27.1218674457058
1098,27.10940232207582
1138,26.498022683810729
1178,26.52519125271566
1218,26.473037996624045
1258,26.698296638956909
1298,26.699563319591506
1338,26.69973814967869
1378,26.699532772404166
1418,26.699746923658993
1458,26.6994279158433
1498,26.699614772296923
1538,26.69943237872239
1578,26.69962465262414
1618,26.995777929743
2,1, 7,21, 0, 2, 0.00,10.00,SummerDesignDay
8,22.394357103043434
10,84947681.10643985
704,766168.196131842
2,1, 7,21, 0, 2,10.00,20.00,SummerDesignDay
8,22.375371366599194
10,84963274.02610171
704,766168.196131842
2,1, 7,21, 0, 2,20.00,30.00,SummerDesignDay
8,22.356372115234558
10,84979301.46205934
704,766168.196131842
2,1, 7,21, 0, 2,30.00,40.00,SummerDesignDay
8,22.33736295549441
10,84994530.03423873
704,766168.196131842
2,1, 7,21, 0, 2,40.00,50.00,SummerDesignDay
8,22.31833500798559
10,85007380.75533423
704,766168.196131842
2,1, 7,21, 0, 2,50.00,60.00,SummerDesignDay
8,22.299293004300805
10,85019827.8478075
704,766168.196131842
2,1, 7,21, 0, 2, 0.00,60.00,SummerDesignDay
938,26.7014978444158
978,26.70019569939521
1018,26.70018955712402
1058,27.1720486608326
1098,27.154821827564278
1138,26.54144781654921
1178,26.564217774760654
1218,26.51462622230211
1258,26.699691829555765
1298,26.69935398728582
1338,26.6995548498623
1378,26.699523750784424
1418,26.69959881625341
1458,26.69925649716173
1498,26.699452857834236
1538,26.699310003609868
1578,26.69946269186219
1618,27.022865615280506
2,1, 7,21, 0, 3, 0.00,10.00,SummerDesignDay
8,22.28500102240784
10,85032488.71024226
704,766168.196131842
2,1, 7,21, 0, 3,10.00,20.00,SummerDesignDay
8,22.27070533801161
10,85045812.85576643
704,766168.196131842
2,1, 7,21, 0, 3,20.00,30.00,SummerDesignDay
8,22.256397908168304
10,85058829.69058928
704,766168.196131842
2,1, 7,21, 0, 3,30.00,40.00,SummerDesignDay
8,22.24208582934788
10,85070420.00787734
704,766168.196131842
2,1, 7,21, 0, 3,40.00,50.00,SummerDesignDay
8,22.227762416136
10,85081577.40462601
704,766168.196131842
2,1, 7,21, 0, 3,50.00,60.00,SummerDesignDay
8,22.213434369456495
10,85092307.74181696
704,766168.196131842
2,1, 7,21, 0, 3, 0.00,60.00,SummerDesignDay
938,26.70144822345719
978,26.70022109189246
1018,26.70022939673616
1058,27.21795090985667
1098,27.19608536139164
1138,26.562725959451567
1178,26.580941924383095
1218,26.535444431858946
1258,26.69960060769472
1298,26.699422852017379
1338,26.69945693939213
1378,26.699456544539009
1418,26.699452877585043
1458,26.699271177306789
1498,26.69930970388258
1538,26.699350827478317
1578,26.69947894781858
1618,27.01619188817391
2,1, 7,21, 0, 4, 0.00,10.00,SummerDesignDay
8,22.199094133336208
10,85102717.45974005
704,766168.196131842
2,1, 7,21, 0, 4,10.00,20.00,SummerDesignDay
8,22.184746117844438
10,85112815.29351978
704,766168.196131842
2,1, 7,21, 0, 4,20.00,30.00,SummerDesignDay
8,22.170394208674524
10,85122551.27437
704,766168.196131842
2,1, 7,21, 0, 4,30.00,40.00,SummerDesignDay
8,22.156029943052258
10,85131953.17556815
704,766168.196131842
2,1, 7,21, 0, 4,40.00,50.00,SummerDesignDay
8,22.14166229604138
10,85141068.09949418
704,766168.196131842
2,1, 7,21, 0, 4,50.00,60.00,SummerDesignDay
8,22.127282061051376
10,85149849.95034331
704,766168.196131842
2,1, 7,21, 0, 4, 0.00,60.00,SummerDesignDay
938,26.701411547505257
978,26.700220967221097
1018,26.700233730280499
1058,27.261790870746905
1098,27.235501170153794
1138,26.57589218933566
1178,26.58952879854793
1218,26.548911090234215
1258,26.699558104978839
1298,26.699430981500297
1338,26.699368549403656
1378,26.699459156352906
1418,26.69931564910757
1458,26.699324528934516
1498,26.699250717194347
1538,26.699344750367357
1578,26.699311273487657
1618,27.000195646579088
2,1, 7,21, 0, 5, 0.00,10.00,SummerDesignDay
8,22.117693369939994
10,85159278.38839287
704,766168.196131842
2,1, 7,21, 0, 5,10.00,20.00,SummerDesignDay
8,22.108096391308693
10,85168383.39263901
704,766168.196131842
2,1, 7,21, 0, 5,20.00,30.00,SummerDesignDay
8,22.098501081595648
10,85177317.37462306
704,766168.196131842
2,1, 7,21, 0, 5,30.00,40.00,SummerDesignDay
8,22.08890192228894
10,85186055.08021079
704,766168.196131842
2,1, 7,21, 0, 5,40.00,50.00,SummerDesignDay
8,22.07929455666112
10,85191892.40937943
704,766168.196131842
2,1, 7,21, 0, 5,50.00,60.00,SummerDesignDay
8,22.06968746468033
10,85200625.13185582
704,766168.196131842
2,1, 7,21, 0, 5, 0.00,60.00,SummerDesignDay
938,26.701385421425884
978,26.70024900094263
1018,26.70024548349284
1058,27.303787242470464
1098,27.273272044767038
1138,26.585815279337966
1178,26.595132523425133
1218,26.5595058465656
1258,26.699618955504247
1298,26.6994447803703
1338,26.699326207100083
1378,26.699472749758816
1418,26.699239227976688
1458,26.69932720630841
1498,26.699222988225374
1538,26.699346138313989
1578,26.699213947646937
1618,26.982397391341228
2,1, 7,21, 0, 6, 0.00,10.00,SummerDesignDay
8,22.07929455666112
10,93512683.97099225
704,766168.196131842
2,1, 7,21, 0, 6,10.00,20.00,SummerDesignDay
8,22.08890192228894
10,85868323.98008771
704,766168.196131842
2,1, 7,21, 0, 6,20.00,30.00,SummerDesignDay
8,22.098501081595648
10,90160288.27158883
704,766168.196131842
2,1, 7,21, 0, 6,30.00,40.00,SummerDesignDay
8,22.108096391308693
10,85787233.61523107
704,766168.196131842
2,1, 7,21, 0, 6,40.00,50.00,SummerDesignDay
8,22.117693369939994
10,84986361.98735062
704,766168.196131842
2,1, 7,21, 0, 6,50.00,60.00,SummerDesignDay
8,22.127282061051376
10,83127472.03677675
704,766168.196131842
2,1, 7,21, 0, 6, 0.00,60.00,SummerDesignDay
938,25.71706718913796
978,25.71737351927933
1018,25.716004358940269
1058,27.305807450919717
1098,27.26740665583127
1138,25.66749918549388
1178,25.668782681826444
1218,25.676917520733068
1258,25.669022996880249
1298,25.696741589992173
1338,25.69516495684985
1378,25.705741263368667
1418,25.695867175767416
1458,25.695182093069119
1498,25.694821961997719
1538,25.695378023880186
1578,25.69559710755131
1618,26.89728790749547
2,1, 7,21, 0, 7, 0.00,10.00,SummerDesignDay
8,22.16081788128382
10,91343413.06141387
704,766168.196131842
2,1, 7,21, 0, 7,10.00,20.00,SummerDesignDay
8,22.194314060674317
10,86083027.20188158
704,766168.196131842
2,1, 7,21, 0, 7,20.00,30.00,SummerDesignDay
8,22.227762416136
10,89204759.26314128
704,766168.196131842
2,1, 7,21, 0, 7,30.00,40.00,SummerDesignDay
8,22.261166449857777
10,88222828.99881359
704,766168.196131842
2,1, 7,21, 0, 7,40.00,50.00,SummerDesignDay
8,22.2945317589312
10,88206129.96826984
704,766168.196131842
2,1, 7,21, 0, 7,50.00,60.00,SummerDesignDay
8,22.32784836437558
10,88348468.31018324
704,766168.196131842
2,1, 7,21, 0, 7, 0.00,60.00,SummerDesignDay
938,25.01189271231185
978,25.012762417223575
1018,25.010247128974588
1058,27.280388701706909
1098,27.239250476647375
1138,25.003552198597779
1178,25.004044197784553
1218,25.003473788147735
1258,25.00346648281419
1298,25.00393126305703
1338,25.004510402061915
1378,25.004532166461588
1418,25.003813524090906
1458,25.00411390364552
1498,25.004536708473827
1538,25.004001724158419
1578,25.003841330889558
1618,26.79761086289088
2,1, 7,21, 0, 8, 0.00,10.00,SummerDesignDay
8,22.408583080392626
10,100017611.98162572
704,766168.196131842
2,1, 7,21, 0, 8,10.00,20.00,SummerDesignDay
8,22.48906704679055
10,98517211.92614559
704,766168.196131842
2,1, 7,21, 0, 8,20.00,30.00,SummerDesignDay
8,22.569293147585947
10,97749938.82094805
704,766168.196131842
2,1, 7,21, 0, 8,30.00,40.00,SummerDesignDay
8,22.649266945139865
10,96702437.13891459
704,766168.196131842
2,1, 7,21, 0, 8,40.00,50.00,SummerDesignDay
8,22.72898934285821
10,96757872.1876791
704,766168.196131842
2,1, 7,21, 0, 8,50.00,60.00,SummerDesignDay
8,22.80846232135329
10,96681453.33095011
704,766168.196131842
2,1, 7,21, 0, 8, 0.00,60.00,SummerDesignDay
938,24.070612596876953
978,24.07211001416265
1018,24.057623529435575
1058,27.238042243287997
1098,27.210304954397185
1138,24.023088075573609
1178,24.025051409430579
1218,24.047006885908659
1258,24.006946492352328
1298,24.02364072140594
1338,24.025954144371345
1378,24.05029840424913
1418,24.008450224724866
1458,24.016482543069775
1498,24.023798025547526
1538,24.031453574822466
1578,24.007557692005503
1618,26.938638908002266
2,1, 7,21, 0, 9, 0.00,10.00,SummerDesignDay
8,22.89699452446473
10,96693073.6186825
704,766168.196131842
2,1, 7,21, 0, 9,10.00,20.00,SummerDesignDay
8,22.985217781404136
10,96740612.35873477
704,766168.196131842
2,1, 7,21, 0, 9,20.00,30.00,SummerDesignDay
8,23.073130643143519
10,96813970.64548855
704,766168.196131842
2,1, 7,21, 0, 9,30.00,40.00,SummerDesignDay
8,23.160743471259779
10,96907892.09334144
704,766168.196131842
2,1, 7,21, 0, 9,40.00,50.00,SummerDesignDay
8,23.248048421233255
10,97015192.02511409
704,766168.196131842
2,1, 7,21, 0, 9,50.00,60.00,SummerDesignDay
8,23.33505738606609
10,97131981.88852626
704,766168.196131842
2,1, 7,21, 0, 9, 0.00,60.00,SummerDesignDay
938,24.00072398568763
978,24.000844591619413
1018,24.00098157611976
1058,27.210785557665689
1098,27.189389773071019
1138,24.00075980737734
1178,24.000500727850875
1218,24.00112727989553
1258,24.000836083950067
1298,24.000596037518866
1338,24.00048891133405
1378,24.00090447868511
1418,24.000706945155856
1458,24.00089383993112
1498,24.000505035256397
1538,24.000461760337506
1578,24.00072846901492
1618,27.46892262590181
2,1, 7,21, 0,10, 0.00,10.00,SummerDesignDay
8,23.41265100341451
10,97243006.09759906
704,766168.196131842
2,1, 7,21, 0,10,10.00,20.00,SummerDesignDay
8,23.490006602427905
10,97322429.30161941
704,766168.196131842
2,1, 7,21, 0,10,20.00,30.00,SummerDesignDay
8,23.567129080603008
10,97456397.7309173
704,766168.196131842
2,1, 7,21, 0,10,30.00,40.00,SummerDesignDay
8,23.64401189423285
10,97581854.36692868
704,766168.196131842
2,1, 7,21, 0,10,40.00,50.00,SummerDesignDay
8,23.720659712070007
10,97712379.69044915
704,766168.196131842
2,1, 7,21, 0,10,50.00,60.00,SummerDesignDay
8,23.797074644998138
10,97821456.24830823
704,766168.196131842
2,1, 7,21, 0,10, 0.00,60.00,SummerDesignDay
938,24.00076192283745
978,24.00094009168318
1018,24.000881498849997
1058,27.234278690118189
1098,27.209773699653956
1138,24.00056572087945
1178,24.000514783207366
1218,24.000965015337284
1258,24.000753231296348
1298,24.00077533493229
1338,24.000499778369215
1378,24.000795722320239
1418,24.001025049179117
1458,24.000611532991625
1498,24.000478831801968
1538,24.000944963949438
1578,24.000841001306886
1618,28.29065185782756
2,1, 7,21, 0,11, 0.00,10.00,SummerDesignDay
8,23.864307802665026
10,97955755.19801268
704,766168.196131842
2,1, 7,21, 0,11,10.00,20.00,SummerDesignDay
8,23.93136184762686
10,98081283.71593973
704,766168.196131842
2,1, 7,21, 0,11,20.00,30.00,SummerDesignDay
8,23.998236689043716
10,98145511.8047248
704,766168.196131842
2,1, 7,21, 0,11,30.00,40.00,SummerDesignDay
8,24.064933161106909
10,98327351.68892645
704,766168.196131842
2,1, 7,21, 0,11,40.00,50.00,SummerDesignDay
8,24.13145676358548
10,98450193.91946247
704,766168.196131842
2,1, 7,21, 0,11,50.00,60.00,SummerDesignDay
8,24.197781774698226
10,98534341.55115387
704,766168.196131842
2,1, 7,21, 0,11, 0.00,60.00,SummerDesignDay
938,24.00080020090439
978,24.001016980618883
1018,24.00075227199866
1058,27.248319614810723
1098,27.22246059602843
1138,24.000980166619443
1178,24.00098784494033
1218,24.000706163737936
1258,24.0007235706672
1298,24.000955519062427
1338,24.000899501100169
1378,24.000616183336079
1418,24.000546246095938
1458,24.00087838571413
1498,24.000741867716397
1538,24.000927461788025
1578,24.000591732609917
1618,29.11998938997974
2,1, 7,21, 0,12, 0.00,10.00,SummerDesignDay
8,24.241912042460787
10,98553372.18984789
704,766168.196131842
2,1, 7,21, 0,12,10.00,20.00,SummerDesignDay
8,24.285965402847194
10,98596262.9353601
704,766168.196131842
2,1, 7,21, 0,12,20.00,30.00,SummerDesignDay
8,24.3299406594327
10,98595212.68526154
704,766168.196131842
2,1, 7,21, 0,12,30.00,40.00,SummerDesignDay
8,24.37383792896479
10,98493091.63493583
704,766168.196131842
2,1, 7,21, 0,12,40.00,50.00,SummerDesignDay
8,24.417658514747676
10,98453605.32563208
704,766168.196131842
2,1, 7,21, 0,12,50.00,60.00,SummerDesignDay
8,24.461402047458465
10,98345292.04958986
704,766168.196131842
2,1, 7,21, 0,12, 0.00,60.00,SummerDesignDay
938,24.000838476706709
978,24.001091777794814
1018,24.00065207223218
1058,27.25118283760034
1098,27.22586465112575
1138,24.00070602513398
1178,24.000958904550953
1218,24.000610919783047
1258,24.000736372554159
1298,24.000605460060883
1338,24.0010527033
1378,24.00055131421756
1418,24.0004610933663
1458,24.00070572137125
1498,24.001346935903628
1538,24.00067445432092
1578,24.000460875423188
1618,29.822409759582773
2,1, 7,21, 0,13, 0.00,10.00,SummerDesignDay
8,24.4963482406198
10,98255453.71200152
704,766168.196131842
2,1, 7,21, 0,13,10.00,20.00,SummerDesignDay
8,24.531240281686157
10,98205420.41851393
704,766168.196131842
2,1, 7,21, 0,13,20.00,30.00,SummerDesignDay
8,24.566071841916153
10,98215250.57642287
704,766168.196131842
2,1, 7,21, 0,13,30.00,40.00,SummerDesignDay
8,24.60086617144924
10,98250598.54321359
704,766168.196131842
2,1, 7,21, 0,13,40.00,50.00,SummerDesignDay
8,24.63561727012247
10,98393028.66944827
704,766168.196131842
2,1, 7,21, 0,13,50.00,60.00,SummerDesignDay
8,24.67031466724826
10,98567656.03120545
704,766168.196131842
2,1, 7,21, 0,13, 0.00,60.00,SummerDesignDay
938,24.000878219604617
978,24.001168169666867
1018,24.00059167507733
1058,27.24468549287393
1098,27.2225249722853
1138,24.00049886025538
1178,24.001483410341007
1218,24.00056445576188
1258,24.000826555049814
1298,24.000474886327245
1338,24.00147772417637
1378,24.000519546550249
1418,24.000438985379458
1458,24.000485325834747
1498,24.000893595443377
1538,24.000557680079497
1578,24.000714119619287
1618,30.320198791987939
2,1, 7,21, 0,14, 0.00,10.00,SummerDesignDay
8,24.691975315719227
10,98742362.86763585
704,766168.196131842
2,1, 7,21, 0,14,10.00,20.00,SummerDesignDay
8,24.713616857955605
10,98919897.12202907
704,766168.196131842
2,1, 7,21, 0,14,20.00,30.00,SummerDesignDay
8,24.735239492462396
10,99093080.41531773
704,766168.196131842
2,1, 7,21, 0,14,30.00,40.00,SummerDesignDay
8,24.75684358990104
10,99261930.09653768
704,766168.196131842
2,1, 7,21, 0,14,40.00,50.00,SummerDesignDay
8,24.778428575760857
10,99421651.8353034
704,766168.196131842
2,1, 7,21, 0,14,50.00,60.00,SummerDesignDay
8,24.79999519699483
10,99571715.69401077
704,766168.196131842
2,1, 7,21, 0,14, 0.00,60.00,SummerDesignDay
938,24.000911935355377
978,24.001231940431738
1018,24.00055925080518
1058,27.23706690945038
1098,27.22095720244842
1138,24.000497983678174
1178,24.000469253808097
1218,24.0005083866948
1258,24.00101173076246
1298,24.00047795977809
1338,24.001782500499599
1378,24.000480277352435
1418,24.001305165591068
1458,24.000459013087157
1498,24.001038757856546
1538,24.00048074964811
1578,24.001143111124354
1618,30.616336560080403
2,1, 7,21, 0,15, 0.00,10.00,SummerDesignDay
8,24.79999519699483
10,99676731.29860342
704,766168.196131842
2,1, 7,21, 0,15,10.00,20.00,SummerDesignDay
8,24.79999519699483
10,99766286.16135477
704,766168.196131842
2,1, 7,21, 0,15,20.00,30.00,SummerDesignDay
8,24.79999519699483
10,99825789.77975604
704,766168.196131842
2,1, 7,21, 0,15,30.00,40.00,SummerDesignDay
8,24.79999519699483
10,99887123.62586302
704,766168.196131842
2,1, 7,21, 0,15,40.00,50.00,SummerDesignDay
8,24.79999519699483
10,99966684.33133206
704,766168.196131842
2,1, 7,21, 0,15,50.00,60.00,SummerDesignDay
8,24.79999519699483
10,100136660.16632453
704,766168.196131842
2,1, 7,21, 0,15, 0.00,60.00,SummerDesignDay
938,24.000935837242083
978,24.001278232900025
1018,24.00054848452042
1058,27.238211509542397
1098,27.2299712076796
1138,24.000647667793954
1178,24.00045507007364
1218,24.000496064529018
1258,24.000691233381557
1298,24.00059551140662
1338,24.002005359843179
1378,24.00047359210565
1418,24.000906218208639
1458,24.000535044482235
1498,24.001117995199797
1538,24.000459801533535
1578,24.00078196353481
1618,30.73096541785245
2,1, 7,21, 0,16, 0.00,10.00,SummerDesignDay
8,24.774109911402314
10,100160592.95522514
704,766168.196131842
2,1, 7,21, 0,16,10.00,20.00,SummerDesignDay
8,24.748193058907299
10,100163230.6553955
704,766168.196131842
2,1, 7,21, 0,16,20.00,30.00,SummerDesignDay
8,24.72226641808931
10,100139735.82952583
704,766168.196131842
2,1, 7,21, 0,16,30.00,40.00,SummerDesignDay
8,24.69629573485237
10,100093340.44049439
704,766168.196131842
2,1, 7,21, 0,16,40.00,50.00,SummerDesignDay
8,24.67031466724826
10,100046657.03637268
704,766168.196131842
2,1, 7,21, 0,16,50.00,60.00,SummerDesignDay
8,24.64429386676247
10,100000951.12752089
704,766168.196131842
2,1, 7,21, 0,16, 0.00,60.00,SummerDesignDay
938,24.00096049710803
978,24.001324305068338
1018,24.00056820397836
1058,27.2442361204042
1098,27.24412796567472
1138,24.00103189268415
1178,24.00045766770407
1218,24.000586066890123
1258,24.000638657898237
1298,24.000897691442647
1338,24.001132635579894
1378,24.000545228384327
1418,24.00061288056173
1458,24.000765360512223
1498,24.00136287058673
1538,24.000518661452394
1578,24.00056931215211
1618,30.645844911796137
2,1, 7,21, 0,17, 0.00,10.00,SummerDesignDay
8,24.609555269533723
10,99929832.76834223
704,766168.196131842
2,1, 7,21, 0,17,10.00,20.00,SummerDesignDay
8,24.574785653419665
10,99845048.48733996
704,766168.196131842
2,1, 7,21, 0,17,20.00,30.00,SummerDesignDay
8,24.53995372449976
10,99745784.01086124
704,766168.196131842
2,1, 7,21, 0,17,30.00,40.00,SummerDesignDay
8,24.505073792047609
10,99802418.96754419
704,766168.196131842
2,1, 7,21, 0,17,40.00,50.00,SummerDesignDay
8,24.470140173703635
10,99633532.25041722
704,766168.196131842
2,1, 7,21, 0,17,50.00,60.00,SummerDesignDay
8,24.435179734761314
10,99390873.87778475
704,766168.196131842
2,1, 7,21, 0,17, 0.00,60.00,SummerDesignDay
938,24.000988572271188
978,24.001001203144964
1018,24.00062612370827
1058,27.241745293611918
1098,27.247991045614204
1138,24.0010410272769
1178,24.00046899127945
1218,24.000584470385396
1258,24.00046299960645
1298,24.001265227338963
1338,24.00047345511729
1378,24.000547865680287
1418,24.000456140656586
1458,24.001099739822185
1498,24.001845128442896
1538,24.000543737106598
1578,24.000452971378708
1618,30.34000229862534
2,1, 7,21, 0,18, 0.00,10.00,SummerDesignDay
8,24.391385151553675
10,99108358.03234856
704,766168.196131842
2,1, 7,21, 0,18,10.00,20.00,SummerDesignDay
8,24.347518457299747
10,98813312.07813686
704,766168.196131842
2,1, 7,21, 0,18,20.00,30.00,SummerDesignDay
8,24.30357424691312
10,98558488.78158067
704,766168.196131842
2,1, 7,21, 0,18,30.00,40.00,SummerDesignDay
8,24.259552332546677
10,98309060.81219691
704,766168.196131842
2,1, 7,21, 0,18,40.00,50.00,SummerDesignDay
8,24.215452456223976
10,97954150.35889249
704,766168.196131842
2,1, 7,21, 0,18,50.00,60.00,SummerDesignDay
8,24.171275219179657
10,97632696.18307328
704,766168.196131842
2,1, 7,21, 0,18, 0.00,60.00,SummerDesignDay
938,24.001016619134089
978,24.000447207951436
1018,24.000732512831008
1058,27.223424783577746
1098,27.23477644329283
1138,24.000539252778436
1178,24.00044937971585
1218,24.000529908109227
1258,24.000763644936215
1298,24.000806504077088
1338,24.000483273751305
1378,24.000510543873238
1418,24.000718309538859
1458,24.000967584415048
1498,24.000841985925438
1538,24.000557797640707
1578,24.000731749018596
1618,29.830037021250378
2,1, 7,21, 0,19, 0.00,10.00,SummerDesignDay
8,24.104862614075448
10,97154148.23145467
704,766168.196131842
2,1, 7,21, 0,19,10.00,20.00,SummerDesignDay
8,24.038272536484607
10,97040369.66624591
704,766168.196131842
2,1, 7,21, 0,19,20.00,30.00,SummerDesignDay
8,23.971500049970403
10,96985095.82637246
704,766168.196131842
2,1, 7,21, 0,19,30.00,40.00,SummerDesignDay
8,23.90455374910954
10,96827610.95852813
704,766168.196131842
2,1, 7,21, 0,19,40.00,50.00,SummerDesignDay
8,23.837428259103495
10,96962809.5105174
704,766168.196131842
2,1, 7,21, 0,19,50.00,60.00,SummerDesignDay
8,23.770122566836709
10,98035386.04542364
704,766168.196131842
2,1, 7,21, 0,19, 0.00,60.00,SummerDesignDay
938,24.001053039132715
978,24.000526950611556
1018,24.000920996486785
1058,27.18080349513448
1098,27.194775198118096
1138,24.000930608449484
1178,24.00074665974974
1218,24.00078038085502
1258,24.001208560908564
1298,24.000695765475766
1338,24.000571395494207
1378,24.000884983245159
1418,24.00126274269492
1458,24.000684631742975
1498,24.000486729365169
1538,24.001058672773483
1578,24.001289417322228
1618,29.138794093325079
2,1, 7,21, 0,20, 0.00,10.00,SummerDesignDay
8,23.720659712070007
10,99175340.59984046
704,766168.196131842
2,1, 7,21, 0,20,10.00,20.00,SummerDesignDay
8,23.671090474146888
10,103472371.31756404
704,766168.196131842
2,1, 7,21, 0,20,20.00,30.00,SummerDesignDay
8,23.621423087029166
10,103228434.40819428
704,766168.196131842
2,1, 7,21, 0,20,30.00,40.00,SummerDesignDay
8,23.57165702277583
10,102998946.04632387
704,766168.196131842
2,1, 7,21, 0,20,40.00,50.00,SummerDesignDay
8,23.52179311411177
10,102717702.21679154
704,766168.196131842
2,1, 7,21, 0,20,50.00,60.00,SummerDesignDay
8,23.47182921589996
10,102468636.18614346
704,766168.196131842
2,1, 7,21, 0,20, 0.00,60.00,SummerDesignDay
938,24.001118574000583
978,24.000546832125008
1018,24.001236928123907
1058,27.107440035411697
1098,27.12174373981922
1138,24.00117342274817
1178,24.000969179601339
1218,24.00056303279419
1258,24.00056738513886
1298,24.000950731302028
1338,24.000693223314415
1378,24.000454565608366
1418,24.00061962985166
1458,24.001075183512986
1498,24.000453223996556
1538,24.00054965863532
1578,24.000630267246309
1618,28.275919032330149
2,1, 7,21, 0,21, 0.00,10.00,SummerDesignDay
8,23.430874963131669
10,102508480.13994906
704,766168.196131842
2,1, 7,21, 0,21,10.00,20.00,SummerDesignDay
8,23.38985327153428
10,102184495.23042776
704,766168.196131842
2,1, 7,21, 0,21,20.00,30.00,SummerDesignDay
8,23.34876959875807
10,101890641.30430195
704,766168.196131842
2,1, 7,21, 0,21,30.00,40.00,SummerDesignDay
8,23.3076141406866
10,101626011.94219448
704,766168.196131842
2,1, 7,21, 0,21,40.00,50.00,SummerDesignDay
8,23.266392150200095
10,101397686.18855196
704,766168.196131842
2,1, 7,21, 0,21,50.00,60.00,SummerDesignDay
8,23.225101800123516
10,101200810.50674559
704,766168.196131842
2,1, 7,21, 0,21, 0.00,60.00,SummerDesignDay
938,24.001176595908917
978,24.00055382277505
1018,24.000464081352864
1058,27.01541307941557
1098,27.02912398054543
1138,24.00036458086672
1178,24.00119273089261
1218,24.000880270211395
1258,24.000887999096578
1298,24.00121206400152
1338,24.00080867121031
1378,24.000678661589505
1418,24.0008175044649
1458,24.00137131041878
1498,24.000699113194174
1538,24.000956256063817
1578,24.000579881787304
1618,27.483131547626724
2,1, 7,21, 0,22, 0.00,10.00,SummerDesignDay
8,23.183748128549767
10,101023258.60057132
704,766168.196131842
2,1, 7,21, 0,22,10.00,20.00,SummerDesignDay
8,23.14232268871898
10,100860869.95623419
704,766168.196131842
2,1, 7,21, 0,22,20.00,30.00,SummerDesignDay
8,23.10082967213209
10,100709452.84752226
704,766168.196131842
2,1, 7,21, 0,22,30.00,40.00,SummerDesignDay
8,23.059271895686434
10,100565751.09887213
704,766168.196131842
2,1, 7,21, 0,22,40.00,50.00,SummerDesignDay
8,23.01764200690935
10,100428239.03484699
704,766168.196131842
2,1, 7,21, 0,22,50.00,60.00,SummerDesignDay
8,22.975943224748894
10,100297565.99396797
704,766168.196131842
2,1, 7,21, 0,22, 0.00,60.00,SummerDesignDay
938,24.0012228532043
978,24.0005621237451
1018,24.000562530649174
1058,26.927444881123369
1098,26.937844945733578
1138,24.000335654352808
1178,24.001310539449169
1218,24.001165811785169
1258,24.001223628928384
1298,24.00132493044877
1338,24.000903720924098
1378,24.000849119965584
1418,24.00082902190184
1458,24.000411167902944
1498,24.000857349384437
1538,24.00137330173723
1578,24.000915168156813
1618,26.921341499847089
2,1, 7,21, 0,23, 0.00,10.00,SummerDesignDay
8,22.943465253097018
10,82058254.92774037
704,766168.196131842
2,1, 7,21, 0,23,10.00,20.00,SummerDesignDay
8,22.91094626295795
10,83994215.6212151
704,766168.196131842
2,1, 7,21, 0,23,20.00,30.00,SummerDesignDay
8,22.878381130741823
10,84328527.48184362
704,766168.196131842
2,1, 7,21, 0,23,30.00,40.00,SummerDesignDay
8,22.845777936798176
10,85432565.12108505
704,766168.196131842
2,1, 7,21, 0,23,40.00,50.00,SummerDesignDay
8,22.813132938530747
10,85947093.75380382
704,766168.196131842
2,1, 7,21, 0,23,50.00,60.00,SummerDesignDay
8,22.780441618581024
10,86219070.70707342
704,766168.196131842
2,1, 7,21, 0,23, 0.00,60.00,SummerDesignDay
938,26.49211167952491
978,25.99751629114715
1018,26.031545091782179
1058,26.944896363209528
1098,26.935053404648146
1138,25.65042420838429
1178,25.685062964532177
1218,25.636673257164067
1258,25.864492079312723
1298,26.085411078160566
1338,26.116416694968149
1378,26.078834251116424
1418,26.21586947931397
1458,26.114895526992219
1498,26.142193656419214
1538,26.108974748824136
1578,26.23425542481516
1618,26.70095265069726
2,1, 7,21, 0,24, 0.00,10.00,SummerDesignDay
8,22.7477123587852
10,86280753.27020478
704,766168.196131842
2,1, 7,21, 0,24,10.00,20.00,SummerDesignDay
8,22.7149412932349
10,86361272.84875459
704,766168.196131842
2,1, 7,21, 0,24,20.00,30.00,SummerDesignDay
8,22.682122705825344
10,86423832.20267071
704,766168.196131842
2,1, 7,21, 0,24,30.00,40.00,SummerDesignDay
8,22.649266945139865
10,86465271.8917921
704,766168.196131842
2,1, 7,21, 0,24,40.00,50.00,SummerDesignDay
8,22.616367640006226
10,86499676.03978472
704,766168.196131842
2,1, 7,21, 0,24,50.00,60.00,SummerDesignDay