Program Version,EnergyPlus, Version 9.1.0-08d2e308bb, YMD=2019.04.09 23:05
1,5,Environment Title[],Latitude[deg],Longitude[deg],Time Zone[],Elevation[m]
2,8,Day of Simulation[],Month[],Day of Month[],DST Indicator[1=yes 0=no],Hour[],StartMinute[],EndMinute[],DayType
3,5,Cumulative Day of Simulation[],Month[],Day of Month[],DST Indicator[1=yes 0=no],DayType  ! When Daily Report Variables Requested
4,2,Cumulative Days of Simulation[],Month[]  ! When Monthly Report Variables Requested
5,1,Cumulative Days of Simulation[] ! When Run Period Report Variables Requested
6,1,Calendar Year of Simulation[] ! When Annual Report Variables Requested
7,9,Environment,Site Outdoor Air Drybulb Temperature [C] !Monthly [Value,Min,Day,Hour,Minute,Max,Day,Hour,Minute]
8,1,Environment,Site Outdoor Air Wetbulb Temperature [C] !TimeStep
938,1,CORE_BOTTOM ZN,Zone Air Temperature [C] !Hourly
939,7,CORE_BOTTOM ZN,Zone Air Relative Humidity [%] !Daily [Value,Min,Hour,Minute,Max,Hour,Minute]
978,1,CORE_MID ZN,Zone Air Temperature [C] !Hourly
979,7,CORE_MID ZN,Zone Air Relative Humidity [%] !Daily [Value,Min,Hour,Minute,Max,Hour,Minute]
1018,1,CORE_TOP ZN,Zone Air Temperature [C] !Hourly
1019,7,CORE_TOP ZN,Zone Air Relative Humidity [%] !Daily [Value,Min,Hour,Minute,Max,Hour,Minute]
1058,1,FIRSTFLOOR_PLENUM ZN,Zone Air Temperature [C] !Hourly
1059,7,FIRSTFLOOR_PLENUM ZN,Zone Air Relative Humidity [%] !Daily [Value,Min,Hour,Minute,Max,Hour,Minute]
1098,1,MIDFLOOR_PLENUM ZN,Zone Air Temperature [C] !Hourly
1099,7,MIDFLOOR_PLENUM ZN,Zone Air Relative Humidity [%] !Daily [Value,Min,Hour,Minute,Max,Hour,Minute]
1138,1,PERIMETER_BOT_ZN_1 ZN,Zone Air Temperature [C] !Hourly
1139,7,PERIMETER_BOT_ZN_1 ZN,Zone Air Relative Humidity [%] !Daily [Value,Min,Hour,Minute,Max,Hour,Minute]
1178,1,PERIMETER_BOT_ZN_2 ZN,Zone Air Temperature [C] !Hourly
1179,7,PERIMETER_BOT_ZN_2 ZN,Zone Air Relative Humidity [%] !Daily [Value,Min,Hour,Minute,Max,Hour,Minute]
1218,1,PERIMETER_BOT_ZN_3 ZN,Zone Air Temperature [C] !Hourly
1219,7,PERIMETER_BOT_ZN_3 ZN,Zone Air Relative Humidity [%] !Daily [Value,Min,Hour,Minute,Max,Hour,Minute]
1258,1,PERIMETER_BOT_ZN_4 ZN,Zone Air Temperature [C] !Hourly
1259,7,PERIMETER_BOT_ZN_4 ZN,Zone Air Relative Humidity [%] !Daily [Value,Min,Hour,Minute,Max,Hour,Minute]
1298,1,PERIMETER_MID_ZN_1 ZN,Zone Air Temperature [C] !Hourly
1299,7,PERIMETER_MID_ZN_1 ZN,Zone Air Relative Humidity [%] !Daily [Value,Min,Hour,Minute,Max,Hour,Minute]
1338,1,PERIMETER_MID_ZN_2 ZN,Zone Air Temperature [C] !Hourly
1339,7,PERIMETER_MID_ZN_2 ZN,Zone Air Relative Humidity [%] !Daily [Value,Min,Hour,Minute,Max,Hour,Minute]
1378,1,PERIMETER_MID_ZN_3 ZN,Zone Air Temperature [C] !Hourly
1379,7,PERIMETER_MID_ZN_3 ZN,Zone Air Relative Humidity [%] !Daily [Value,Min,Hour,Minute,Max,Hour,Minute]
1418,1,PERIMETER_MID_ZN_4 ZN,Zone Air Temperature [C] !Hourly
1419,7,PERIMETER_MID_ZN_4 ZN,Zone Air Relative Humidity [%] !Daily [Value,Min,Hour,Minute,Max,Hour,Minute]
1458,1,PERIMETER_TOP_ZN_1 ZN,Zone Air Temperature [C] !Hourly
1459,7,PERIMETER_TOP_ZN_1 ZN,Zone Air Relative Humidity [%] !Daily [Value,Min,Hour,Minute,Max,Hour,Minute]
1498,1,PERIMETER_TOP_ZN_2 ZN,Zone Air Temperature [C] !Hourly
1499,7,PERIMETER_TOP_ZN_2 ZN,Zone Air Relative Humidity [%] !Daily [Value,Min,Hour,Minute,Max,Hour,Minute]
1538,1,PERIMETER_TOP_ZN_3 ZN,Zone Air Temperature [C] !Hourly
1539,7,PERIMETER_TOP_ZN_3 ZN,Zone Air Relative Humidity [%] !Daily [Value,Min,Hour,Minute,Max,Hour,Minute]
1578,1,PERIMETER_TOP_ZN_4 ZN,Zone Air Temperature [C] !Hourly
1579,7,PERIMETER_TOP_ZN_4 ZN,Zone Air Relative Humidity [%] !Daily [Value,Min,Hour,Minute,Max,Hour,Minute]
1618,1,TOPFLOOR_PLENUM ZN,Zone Air Temperature [C] !Hourly
1619,7,TOPFLOOR_PLENUM ZN,Zone Air Relative Humidity [%] !Daily [Value,Min,Hour,Minute,Max,Hour,Minute]
10,1,Electricity:Facility [J] !TimeStep
704,1,Gas:Facility [J] !TimeStep
End of Data Dictionary
1,HOUSTON BUSH INTERCONTINENTAL ANN CLG .4% CONDNS DB=>MWB,  30.00, -95.37,  -6.00,  29.00
2,1, 7,21, 0, 1, 0.00,10.00,SummerDesignDay
8,22.55515166200166
10,82991254.84749389
704,766168.196131842
2,1, 7,21, 0, 1,10.00,20.00,SummerDesignDay
8,22.526850134727679
10,83011268.94761601
704,766168.196131842
2,1, 7,21, 0, 1,20.00,30.00,SummerDesignDay
8,22.498517194785639
10,83031721.11609507
704,766168.196131842
2,1, 7,21, 0, 1,30.00,40.00,SummerDesignDay
8,22.47015203492528
10,83048839.28124258
704,766168.196131842
2,1, 7,21, 0, 1,40.00,50.00,SummerDesignDay
8,22.441756223232479
10,83067584.93141398
704,766168.196131842
2,1, 7,21, 0, 1,50.00,60.00,SummerDesignDay
8,22.41333327947745
10,83083862.07132986
704,766168.196131842
2,1, 7,21, 0, 1, 0.00,60.00,SummerDesignDay
938,26.70171318898547
978,26.700314431349459
1018,26.70028548838774
1058,27.121941685914149
1098,27.10948330414816
1138,26.497624532762094
1178,26.524804308784906
1218,26.472646689099294
1258,26.69828004073742
1298,26.699622887256657
1338,26.699775751811985
1378,26.69958459935204
1418,26.699780521357395
1458,26.699523245201477
1498,26.699705528097217
1538,26.69947157454625
1578,26.699699585968955
1618,26.99583840813204
2,1, 7,21, 0, 2, 0.00,10.00,SummerDesignDay
8,22.394357103043434
10,83101052.9009315
704,766168.196131842
2,1, 7,21, 0, 2,10.00,20.00,SummerDesignDay
8,22.375371366599194
10,83116426.9915025
704,766168.196131842
2,1, 7,21, 0, 2,20.00,30.00,SummerDesignDay
8,22.356372115234558
10,83132519.89619369
704,766168.196131842
2,1, 7,21, 0, 2,30.00,40.00,SummerDesignDay
8,22.33736295549441
10,83146122.45441836
704,766168.196131842
2,1, 7,21, 0, 2,40.00,50.00,SummerDesignDay
8,22.31833500798559
10,83158159.74189016
704,766168.196131842
2,1, 7,21, 0, 2,50.00,60.00,SummerDesignDay
8,22.299293004300805
10,83169669.7670126
704,766168.196131842
2,1, 7,21, 0, 2, 0.00,60.00,SummerDesignDay
938,26.701629141992524
978,26.70027820585999
1018,26.700289049466876
1058,27.172119444987886
1098,27.15490259590554
1138,26.54099888193242
1178,26.563779315444337
1218,26.514184273903799
1258,26.69972790457302
1298,26.69948649075488
1338,26.69961028321222
1378,26.699562252169966
1418,26.699563700236415
1458,26.699410985936756
1498,26.699462702358173
1538,26.6994698294975
1578,26.6994636506203
1618,27.022924692609029
2,1, 7,21, 0, 3, 0.00,10.00,SummerDesignDay
8,22.28500102240784
10,83181321.5205451
704,766168.196131842
2,1, 7,21, 0, 3,10.00,20.00,SummerDesignDay
8,22.27070533801161
10,83192932.68633801
704,766168.196131842
2,1, 7,21, 0, 3,20.00,30.00,SummerDesignDay
8,22.256397908168304
10,83203945.45182178
704,766168.196131842
2,1, 7,21, 0, 3,30.00,40.00,SummerDesignDay
8,22.24208582934788
10,83214601.67207241
704,766168.196131842
2,1, 7,21, 0, 3,40.00,50.00,SummerDesignDay
8,22.227762416136
10,83224835.16188261
704,766168.196131842
2,1, 7,21, 0, 3,50.00,60.00,SummerDesignDay
8,22.213434369456495
10,83234690.32795435
704,766168.196131842
2,1, 7,21, 0, 3, 0.00,60.00,SummerDesignDay
938,26.70157584804667
978,26.700272386934829
1018,26.700285151165077
1058,27.21801819963946
1098,27.196163617822977
1138,26.562253180886516
1178,26.580478331528068
1218,26.534978480884637
1258,26.69963218558342
1298,26.699514996740708
1338,26.699458852143228
1378,26.699536529752483
1418,26.699285699773289
1458,26.699427530396816
1498,26.699330148786485
1538,26.69944171917399
1578,26.699276392289918
1618,27.01625643975161
2,1, 7,21, 0, 4, 0.00,10.00,SummerDesignDay
8,22.199094133336208
10,83244208.86215797
704,766168.196131842
2,1, 7,21, 0, 4,10.00,20.00,SummerDesignDay
8,22.184746117844438
10,83253385.11255929
704,766168.196131842
2,1, 7,21, 0, 4,20.00,30.00,SummerDesignDay
8,22.170394208674524
10,83262250.55468193
704,766168.196131842
2,1, 7,21, 0, 4,30.00,40.00,SummerDesignDay
8,22.156029943052258
10,83270791.51457009
704,766168.196131842
2,1, 7,21, 0, 4,40.00,50.00,SummerDesignDay
8,22.14166229604138
10,83279040.48837483
704,766168.196131842
2,1, 7,21, 0, 4,50.00,60.00,SummerDesignDay
8,22.127282061051376
10,83286952.6819301
704,766168.196131842
2,1, 7,21, 0, 4, 0.00,60.00,SummerDesignDay
938,26.70153718151022
978,26.700273548185753
1018,26.700283069984875
1058,27.26185446383558
1098,27.235576501838066
1138,26.57540348215827
1178,26.589048297244316
1218,26.548428924866888
1258,26.699585797059418
1298,26.69951847166659
1338,26.699384211471778
1378,26.69954071291906
1418,26.69917548785877
1458,26.699422462546356
1498,26.699274470132399
1538,26.69943633104614
1578,26.69927362103986
1618,27.000253676994416
2,1, 7,21, 0, 5, 0.00,10.00,SummerDesignDay
8,22.117693369939994
10,83295390.0094811
704,766168.196131842
2,1, 7,21, 0, 5,10.00,20.00,SummerDesignDay
8,22.108096391308693
10,83303850.68443665
704,766168.196131842
2,1, 7,21, 0, 5,20.00,30.00,SummerDesignDay
8,22.098501081595648
10,83312174.33231262
704,766168.196131842
2,1, 7,21, 0, 5,30.00,40.00,SummerDesignDay
8,22.08890192228894
10,83320272.60793719
704,766168.196131842
2,1, 7,21, 0, 5,40.00,50.00,SummerDesignDay
8,22.07929455666112
10,83325732.36088267
704,766168.196131842
2,1, 7,21, 0, 5,50.00,60.00,SummerDesignDay
8,22.06968746468033
10,83333914.18983555
704,766168.196131842
2,1, 7,21, 0, 5, 0.00,60.00,SummerDesignDay
938,26.70150987070835
978,26.700305694588253
1018,26.700303870925297
1058,27.30384711291991
1098,27.273345931234166
1138,26.585316931099319
1178,26.594641542497027
1218,26.55901369924122
1258,26.699566025120608
1298,26.699532052747775
1338,26.69941087984114
1378,26.699555104882049
1418,26.699200283160068
1458,26.699423987045269
1498,26.699248470827575
1538,26.699438054755487
1578,26.69933460854995
1618,26.982454194192859
2,1, 7,21, 0, 6, 0.00,10.00,SummerDesignDay
8,22.07929455666112
10,92334766.14630705
704,766168.196131842
2,1, 7,21, 0, 6,10.00,20.00,SummerDesignDay
8,22.08890192228894
10,84020270.29255906
704,766168.196131842
2,1, 7,21, 0, 6,20.00,30.00,SummerDesignDay
8,22.098501081595648
10,88703848.63286719
704,766168.196131842
2,1, 7,21, 0, 6,30.00,40.00,SummerDesignDay
8,22.108096391308693
10,84271564.27159474
704,766168.196131842
2,1, 7,21, 0, 6,40.00,50.00,SummerDesignDay
8,22.117693369939994
10,83405545.31901616
704,766168.196131842
2,1, 7,21, 0, 6,50.00,60.00,SummerDesignDay
8,22.127282061051376
10,81545924.13917548
704,766168.196131842
2,1, 7,21, 0, 6, 0.00,60.00,SummerDesignDay
938,25.716996622083586
978,25.7176184392783
1018,25.716261684418908
1058,27.305884760049975
1098,27.267480037615685
1138,25.6676808798869
1178,25.66894161292626
1218,25.678746592298734
1258,25.66905664855814
1298,25.697376390914827
1338,25.695260990486074
1378,25.70632263157049
1418,25.69596311616986
1458,25.695288448308629
1498,25.69491989174875
1538,25.696009775691026
1578,25.695695391984527
1618,26.897344219046237
2,1, 7,21, 0, 7, 0.00,10.00,SummerDesignDay
8,22.16081788128382
10,90406795.8382053
704,766168.196131842
2,1, 7,21, 0, 7,10.00,20.00,SummerDesignDay
8,22.194314060674317
10,84824355.00924666
704,766168.196131842
2,1, 7,21, 0, 7,20.00,30.00,SummerDesignDay
8,22.227762416136
10,88129051.13095097
704,766168.196131842
2,1, 7,21, 0, 7,30.00,40.00,SummerDesignDay
8,22.261166449857777
10,87108089.38668253
704,766168.196131842
2,1, 7,21, 0, 7,40.00,50.00,SummerDesignDay
8,22.2945317589312
10,87069808.48318331
704,766168.196131842
2,1, 7,21, 0, 7,50.00,60.00,SummerDesignDay
8,22.32784836437558
10,87207477.1708865
704,766168.196131842
2,1, 7,21, 0, 7, 0.00,60.00,SummerDesignDay
938,25.01215902722662
978,25.013062408073293
1018,25.01055871472995
1058,27.280467285266526
1098,27.239324555084044
1138,25.003627343802007
1178,25.00412666631867
1218,25.003546743496075
1258,25.003543019493198
1298,25.00401736897224
1338,25.004596224245615
1378,25.00461965447465
1418,25.00389827818057
1458,25.004203534538538
1498,25.004623912284975
1538,25.004088425852598
1578,25.003929028305156
1618,26.79766941377822
2,1, 7,21, 0, 8, 0.00,10.00,SummerDesignDay
8,22.408583080392626
10,99489709.73206954
704,766168.196131842
2,1, 7,21, 0, 8,10.00,20.00,SummerDesignDay
8,22.48906704679055
10,97806870.75722625
704,766168.196131842
2,1, 7,21, 0, 8,20.00,30.00,SummerDesignDay
8,22.569293147585947
10,97006827.75749476
704,766168.196131842
2,1, 7,21, 0, 8,30.00,40.00,SummerDesignDay
8,22.649266945139865
10,95862103.5669026
704,766168.196131842
2,1, 7,21, 0, 8,40.00,50.00,SummerDesignDay
8,22.72898934285821
10,95910852.46680545
704,766168.196131842
2,1, 7,21, 0, 8,50.00,60.00,SummerDesignDay
8,22.80846232135329
10,95815199.48543023
704,766168.196131842
2,1, 7,21, 0, 8, 0.00,60.00,SummerDesignDay
938,24.07156397556796
978,24.073123894579579
1018,24.058679801884265
1058,27.23812542279127
1098,27.210390537321464
1138,24.023425034811767
1178,24.025394086846928
1218,24.048242411424039
1258,24.00702658237815
1298,24.0239374761469
1338,24.026271335382945
1378,24.051306580003325
1418,24.008789617818068
1458,24.01679782375614
1498,24.024111245261009
1538,24.031680144911748
1578,24.00764006430839
1618,26.938716677605937
2,1, 7,21, 0, 9, 0.00,10.00,SummerDesignDay
8,22.89699452446473
10,95810063.0237322
704,766168.196131842
2,1, 7,21, 0, 9,10.00,20.00,SummerDesignDay
8,22.985217781404136
10,95848736.7405497
704,766168.196131842
2,1, 7,21, 0, 9,20.00,30.00,SummerDesignDay
8,23.073130643143519
10,95916218.20211266
704,766168.196131842
2,1, 7,21, 0, 9,30.00,40.00,SummerDesignDay
8,23.160743471259779
10,96006575.19187214
704,766168.196131842
2,1, 7,21, 0, 9,40.00,50.00,SummerDesignDay
8,23.248048421233255
10,96111660.69597541
704,766168.196131842
2,1, 7,21, 0, 9,50.00,60.00,SummerDesignDay
8,23.33505738606609
10,96227137.79454087
704,766168.196131842
2,1, 7,21, 0, 9, 0.00,60.00,SummerDesignDay
938,24.00082108630535
978,24.000932795365388
1018,24.00107009009871
1058,27.210867007387966
1098,27.189476699329857
1138,24.000844095563296
1178,24.00058949086321
1218,24.001206986986593
1258,24.000924190700549
1298,24.000682001327705
1338,24.000577517271237
1378,24.00098971252923
1418,24.000793783569738
1458,24.000981059623855
1498,24.000593299637349
1538,24.000541150989056
1578,24.0008158987294
1618,27.469004263077357
2,1, 7,21, 0,10, 0.00,10.00,SummerDesignDay
8,23.41265100341451
10,96338208.87024309
704,766168.196131842
2,1, 7,21, 0,10,10.00,20.00,SummerDesignDay
8,23.490006602427905
10,96402507.30652257
704,766168.196131842
2,1, 7,21, 0,10,20.00,30.00,SummerDesignDay
8,23.567129080603008
10,96569135.29981067
704,766168.196131842
2,1, 7,21, 0,10,30.00,40.00,SummerDesignDay
8,23.64401189423285
10,96666258.80506413
704,766168.196131842
2,1, 7,21, 0,10,40.00,50.00,SummerDesignDay
8,23.720659712070007
10,96789955.04881083
704,766168.196131842
2,1, 7,21, 0,10,50.00,60.00,SummerDesignDay
8,23.797074644998138
10,96896248.59653019
704,766168.196131842
2,1, 7,21, 0,10, 0.00,60.00,SummerDesignDay
938,24.000863027157437
978,24.00103343079324
1018,24.000974472676963
1058,27.234357090666035
1098,27.20985623902065
1138,24.00065483591204
1178,24.00060802008322
1218,24.001052965882538
1258,24.000844218666896
1298,24.00080288345819
1338,24.000592498401788
1378,24.00088457039109
1418,24.001172235002796
1458,24.00070228890134
1498,24.00057157944079
1538,24.00109518542465
1578,24.00093529872308
1618,28.290729284104246
2,1, 7,21, 0,11, 0.00,10.00,SummerDesignDay
8,23.864307802665026
10,97078034.69455527
704,766168.196131842
2,1, 7,21, 0,11,10.00,20.00,SummerDesignDay
8,23.93136184762686
10,97169072.99124824
704,766168.196131842
2,1, 7,21, 0,11,20.00,30.00,SummerDesignDay
8,23.998236689043716
10,97270080.47522985
704,766168.196131842
2,1, 7,21, 0,11,30.00,40.00,SummerDesignDay
8,24.064933161106909
10,97425254.03626372
704,766168.196131842
2,1, 7,21, 0,11,40.00,50.00,SummerDesignDay
8,24.13145676358548
10,97547599.14767234
704,766168.196131842
2,1, 7,21, 0,11,50.00,60.00,SummerDesignDay
8,24.197781774698226
10,97632581.5380352
704,766168.196131842
2,1, 7,21, 0,11, 0.00,60.00,SummerDesignDay
938,24.00090367901772
978,24.001112858476146
1018,24.00084727015107
1058,27.248398234376045
1098,27.222544935808999
1138,24.00105458970512
1178,24.00108262554572
1218,24.000796353447954
1258,24.000816479353334
1298,24.001224075447185
1338,24.000993367786294
1378,24.00070737590381
1418,24.000651898683406
1458,24.001015384858687
1498,24.00083555456401
1538,24.00102062610146
1578,24.000776909233108
1618,29.12006950119868
2,1, 7,21, 0,12, 0.00,10.00,SummerDesignDay
8,24.241912042460787
10,97652929.93020152
704,766168.196131842
2,1, 7,21, 0,12,10.00,20.00,SummerDesignDay
8,24.285965402847194
10,97700169.1201153
704,766168.196131842
2,1, 7,21, 0,12,20.00,30.00,SummerDesignDay
8,24.3299406594327
10,97699739.77689965
704,766168.196131842
2,1, 7,21, 0,12,30.00,40.00,SummerDesignDay
8,24.37383792896479
10,97589232.94918536
704,766168.196131842
2,1, 7,21, 0,12,40.00,50.00,SummerDesignDay
8,24.417658514747676
10,97550078.41271164
704,766168.196131842
2,1, 7,21, 0,12,50.00,60.00,SummerDesignDay
8,24.461402047458465
10,97433803.42410608
704,766168.196131842
2,1, 7,21, 0,12, 0.00,60.00,SummerDesignDay
938,24.000944098917249
978,24.00118997244142
1018,24.000749160729666
1058,27.251262832390414
1098,27.22594901331078
1138,24.000801405206528
1178,24.001058676664937
1218,24.000703543320584
1258,24.0008316961686
1298,24.00070007672169
1338,24.00115107448435
1378,24.000644970109176
1418,24.000559619249278
1458,24.00080067530024
1498,24.001444537715803
1538,24.00076817749098
1578,24.00055909142365
1618,29.82249036747699
2,1, 7,21, 0,13, 0.00,10.00,SummerDesignDay
8,24.4963482406198
10,97339719.855846
704,766168.196131842
2,1, 7,21, 0,13,10.00,20.00,SummerDesignDay
8,24.531240281686157
10,97286991.52500643
704,766168.196131842
2,1, 7,21, 0,13,20.00,30.00,SummerDesignDay
8,24.566071841916153
10,97296722.4686114
704,766168.196131842
2,1, 7,21, 0,13,30.00,40.00,SummerDesignDay
8,24.60086617144924
10,97323939.04533296
704,766168.196131842
2,1, 7,21, 0,13,40.00,50.00,SummerDesignDay
8,24.63561727012247
10,97473518.76275952
704,766168.196131842
2,1, 7,21, 0,13,50.00,60.00,SummerDesignDay
8,24.67031466724826
10,97663139.41362168
704,766168.196131842
2,1, 7,21, 0,13, 0.00,60.00,SummerDesignDay
938,24.0009861102621
978,24.001268865186927
1018,24.000691136281728
1058,27.24476635437973
1098,27.222609656457708
1138,24.000595682427826
1178,24.001589535123558
1218,24.000659390218329
1258,24.000922275706647
1298,24.000572229304777
1338,24.00158101609423
1378,24.000615529678727
1418,24.00053972697854
1458,24.000582739344578
1498,24.000993296227845
1538,24.00065386126545
1578,24.000815698504387
1618,30.320278784181288
2,1, 7,21, 0,14, 0.00,10.00,SummerDesignDay
8,24.691975315719227
10,97844522.61468674
704,766168.196131842
2,1, 7,21, 0,14,10.00,20.00,SummerDesignDay
8,24.713616857955605
10,98026644.59645485
704,766168.196131842
2,1, 7,21, 0,14,20.00,30.00,SummerDesignDay
8,24.735239492462396
10,98203775.85206937
704,766168.196131842
2,1, 7,21, 0,14,30.00,40.00,SummerDesignDay
8,24.75684358990104
10,98376345.05068998
704,766168.196131842
2,1, 7,21, 0,14,40.00,50.00,SummerDesignDay
8,24.778428575760857
10,98539454.66096412
704,766168.196131842
2,1, 7,21, 0,14,50.00,60.00,SummerDesignDay
8,24.79999519699483
10,98692596.0134521
704,766168.196131842
2,1, 7,21, 0,14, 0.00,60.00,SummerDesignDay
938,24.001021050675999
978,24.001334043284087
1018,24.000660063403985
1058,27.237148576654709
1098,27.22104256415179
1138,24.000596342805534
1178,24.000571122916257
1218,24.000604678009098
1258,24.00110830053833
1298,24.0005767831283
1338,24.001888684913625
1378,24.00057770514772
1418,24.00140774392658
1458,24.00055825014785
1498,24.001139435684676
1538,24.000578709780485
1578,24.0012445007625
1618,30.616417019791049
2,1, 7,21, 0,15, 0.00,10.00,SummerDesignDay
8,24.79999519699483
10,98801444.7318586
704,766168.196131842
2,1, 7,21, 0,15,10.00,20.00,SummerDesignDay
8,24.79999519699483
10,98880427.36313348
704,766168.196131842
2,1, 7,21, 0,15,20.00,30.00,SummerDesignDay
8,24.79999519699483
10,98917294.17165752
704,766168.196131842
2,1, 7,21, 0,15,30.00,40.00,SummerDesignDay
8,24.79999519699483
10,98983379.55105789
704,766168.196131842
2,1, 7,21, 0,15,40.00,50.00,SummerDesignDay
8,24.79999519699483
10,99113283.23047664
704,766168.196131842
2,1, 7,21, 0,15,50.00,60.00,SummerDesignDay
8,24.79999519699483
10,99282909.39079638
704,766168.196131842
2,1, 7,21, 0,15, 0.00,60.00,SummerDesignDay
938,24.00104537243212
978,24.001380882165465
1018,24.00064981184244
1058,27.23829404395663
1098,27.230056633680733
1138,24.00074603579141
1178,24.0005573325037
1218,24.000592987597185
1258,24.00087379453898
1298,24.000694117150628
1338,24.002113908457166
1378,24.000571633885163
1418,24.000889891316576
1458,24.00063415240456
1498,24.001219558379977
1538,24.000558632442269
1578,24.000833763272
1618,30.731046143836215
2,1, 7,21, 0,16, 0.00,10.00,SummerDesignDay
8,24.774109911402314
10,99304667.10272368
704,766168.196131842
2,1, 7,21, 0,16,10.00,20.00,SummerDesignDay
8,24.748193058907299
10,99304234.9249532
704,766168.196131842
2,1, 7,21, 0,16,20.00,30.00,SummerDesignDay
8,24.72226641808931
10,99278799.46206127
704,766168.196131842
2,1, 7,21, 0,16,30.00,40.00,SummerDesignDay
8,24.69629573485237
10,99230864.05640929
704,766168.196131842
2,1, 7,21, 0,16,40.00,50.00,SummerDesignDay
8,24.67031466724826
10,99183296.39058958
704,766168.196131842
2,1, 7,21, 0,16,50.00,60.00,SummerDesignDay
8,24.64429386676247
10,99137000.93136312
704,766168.196131842
2,1, 7,21, 0,16, 0.00,60.00,SummerDesignDay
938,24.001068667733735
978,24.001425774653624
1018,24.000668194044015
1058,27.244319942060334
1098,27.24421402080874
1138,24.001129561043883
1178,24.000558911741178
1218,24.000681593607295
1258,24.000744027247778
1298,24.0009948288595
1338,24.001236851642984
1378,24.000641708295548
1418,24.000704544336519
1458,24.000862541892304
1498,24.00146491398863
1538,24.000615958184196
1578,24.000663778549037
1618,30.645925676458316
2,1, 7,21, 0,17, 0.00,10.00,SummerDesignDay
8,24.609555269533723
10,99065416.87339802
704,766168.196131842
2,1, 7,21, 0,17,10.00,20.00,SummerDesignDay
8,24.574785653419665
10,98979144.39908754
704,766168.196131842
2,1, 7,21, 0,17,20.00,30.00,SummerDesignDay
8,24.53995372449976
10,98878011.2806627
704,766168.196131842
2,1, 7,21, 0,17,30.00,40.00,SummerDesignDay
8,24.505073792047609
10,98759925.26847308
704,766168.196131842
2,1, 7,21, 0,17,40.00,50.00,SummerDesignDay
8,24.470140173703635
10,98675299.34242891
704,766168.196131842
2,1, 7,21, 0,17,50.00,60.00,SummerDesignDay
8,24.435179734761314
10,98674877.86209943
704,766168.196131842
2,1, 7,21, 0,17, 0.00,60.00,SummerDesignDay
938,24.001095298308966
978,24.001310768196164
1018,24.000724624595859
1058,27.241829008985098
1098,27.248080868025313
1138,24.00113901287368
1178,24.000569227035198
1218,24.00067821750388
1258,24.00056247030642
1298,24.00136184115912
1338,24.000573076135724
1378,24.000642646191918
1418,24.00055480890877
1458,24.00119586346817
1498,24.00194944586958
1538,24.000639293787459
1578,24.00055139737742
1618,30.340083366056026
2,1, 7,21, 0,18, 0.00,10.00,SummerDesignDay
8,24.391385151553675
10,98361992.63203599
704,766168.196131842
2,1, 7,21, 0,18,10.00,20.00,SummerDesignDay
8,24.347518457299747
10,98039968.4194601
704,766168.196131842
2,1, 7,21, 0,18,20.00,30.00,SummerDesignDay
8,24.30357424691312
10,97745940.55755522
704,766168.196131842
2,1, 7,21, 0,18,30.00,40.00,SummerDesignDay
8,24.259552332546677
10,97462561.72739153
704,766168.196131842
2,1, 7,21, 0,18,40.00,50.00,SummerDesignDay
8,24.215452456223976
10,97077535.82901804
704,766168.196131842
2,1, 7,21, 0,18,50.00,60.00,SummerDesignDay
8,24.171275219179657
10,96730497.86795561
704,766168.196131842
2,1, 7,21, 0,18, 0.00,60.00,SummerDesignDay
938,24.001122827917219
978,24.000659742039529
1018,24.000830475600769
1058,27.22351105901916
1098,27.234878819019767
1138,24.00063526003657
1178,24.000547545858848
1218,24.000623342808195
1258,24.00086132449165
1298,24.000904041332509
1338,24.000582746263534
1378,24.000605044825137
1418,24.000815253342024
1458,24.001299975441243
1498,24.000942662232338
1538,24.000652831646844
1578,24.00082827041034
1618,29.83011964674209
2,1, 7,21, 0,19, 0.00,10.00,SummerDesignDay
8,24.104862614075448
10,96232243.8384213
704,766168.196131842
2,1, 7,21, 0,19,10.00,20.00,SummerDesignDay
8,24.038272536484607
10,96099359.5548033
704,766168.196131842
2,1, 7,21, 0,19,20.00,30.00,SummerDesignDay
8,23.971500049970403
10,96045425.87734355
704,766168.196131842
2,1, 7,21, 0,19,30.00,40.00,SummerDesignDay
8,23.90455374910954
10,95856970.0767531
704,766168.196131842
2,1, 7,21, 0,19,40.00,50.00,SummerDesignDay
8,23.837428259103495
10,95963360.09202163
704,766168.196131842
2,1, 7,21, 0,19,50.00,60.00,SummerDesignDay
8,23.770122566836709
10,97014349.8575189
704,766168.196131842
2,1, 7,21, 0,19, 0.00,60.00,SummerDesignDay
938,24.001156731796447
978,24.000610204596133
1018,24.001016876229884
1058,27.180892330253557
1098,27.194867158288287
1138,24.001025088763169
1178,24.00084092240399
1218,24.000873156612344
1258,24.001307287983129
1298,24.000789463046563
1338,24.000640022575614
1378,24.000977944641666
1418,24.00136066863115
1458,24.000779723823457
1498,24.000583666597718
1538,24.00115254641246
1578,24.001386965747686
1618,29.13888274918489
2,1, 7,21, 0,20, 0.00,10.00,SummerDesignDay
8,23.720659712070007
10,98143095.71456142
704,766168.196131842
2,1, 7,21, 0,20,10.00,20.00,SummerDesignDay
8,23.671090474146888
10,102416718.32094236
704,766168.196131842
2,1, 7,21, 0,20,20.00,30.00,SummerDesignDay
8,23.621423087029166
10,102169283.38856055
704,766168.196131842
2,1, 7,21, 0,20,30.00,40.00,SummerDesignDay
8,23.57165702277583
10,101934117.65952267
704,766168.196131842
2,1, 7,21, 0,20,40.00,50.00,SummerDesignDay
8,23.52179311411177
10,101641468.89041876
704,766168.196131842
2,1, 7,21, 0,20,50.00,60.00,SummerDesignDay
8,23.47182921589996
10,101384449.34011294
704,766168.196131842
2,1, 7,21, 0,20, 0.00,60.00,SummerDesignDay
938,24.001219901564629
978,24.000637332103954
1018,24.00133190864683
1058,27.10752874304222
1098,27.121834845276358
1138,24.001268006736614
1178,24.001063834484428
1218,24.000653673823597
1258,24.000663108053876
1298,24.001042801677415
1338,24.000784604767195
1378,24.000546413348315
1418,24.000716193085599
1458,24.00116880965562
1498,24.000547114079394
1538,24.00064212830098
1578,24.000726867679693
1618,28.276003349264369
2,1, 7,21, 0,21, 0.00,10.00,SummerDesignDay
8,23.430874963131669
10,101447803.24958577
704,766168.196131842
2,1, 7,21, 0,21,10.00,20.00,SummerDesignDay
8,23.38985327153428
10,101099282.4869041
704,766168.196131842
2,1, 7,21, 0,21,20.00,30.00,SummerDesignDay
8,23.34876959875807
10,100793710.3523937
704,766168.196131842
2,1, 7,21, 0,21,30.00,40.00,SummerDesignDay
8,23.3076141406866
10,100518193.60614027
704,766168.196131842
2,1, 7,21, 0,21,40.00,50.00,SummerDesignDay
8,23.266392150200095
10,100281957.61044117
704,766168.196131842
2,1, 7,21, 0,21,50.00,60.00,SummerDesignDay
8,23.225101800123516
10,100078961.04349853
704,766168.196131842
2,1, 7,21, 0,21, 0.00,60.00,SummerDesignDay
938,24.001276923221327
978,24.00064455102644
1018,24.00049122027552
1058,27.015501326792707
1098,27.029214480238747
1138,24.000452956033546
1178,24.001290360830354
1218,24.00096968569133
1258,24.00098133878484
1298,24.001305015538369
1338,24.00089930645394
1378,24.000767615882343
1418,24.000884334825888
1458,24.001466893340689
1498,24.000789700691347
1538,24.001047758869416
1578,24.000671964401279
1618,27.483205826741949
2,1, 7,21, 0,22, 0.00,10.00,SummerDesignDay
8,23.183748128549767
10,99896230.61415316
704,766168.196131842
2,1, 7,21, 0,22,10.00,20.00,SummerDesignDay
8,23.14232268871898
10,99729368.97683333
704,766168.196131842
2,1, 7,21, 0,22,20.00,30.00,SummerDesignDay
8,23.10082967213209
10,99573867.44927816
704,766168.196131842
2,1, 7,21, 0,22,30.00,40.00,SummerDesignDay
8,23.059271895686434
10,99426329.57852449
704,766168.196131842
2,1, 7,21, 0,22,40.00,50.00,SummerDesignDay
8,23.01764200690935
10,99285688.9521928
704,766168.196131842
2,1, 7,21, 0,22,50.00,60.00,SummerDesignDay
8,22.975943224748894
10,99150662.96864243
704,766168.196131842
2,1, 7,21, 0,22, 0.00,60.00,SummerDesignDay
938,24.001321743598927
978,24.000651328381794
1018,24.000653171389378
1058,26.927532502310258
1098,26.937934467833743
1138,24.000422177474986
1178,24.001237575628058
1218,24.001256196878776
1258,24.001320307283938
1298,24.001418147625217
1338,24.000994354048684
1378,24.000937119501328
1418,24.000918974852728
1458,24.00050056385832
1498,24.000947587410836
1538,24.00146656277377
1578,24.001006801858464
1618,26.92141446008885
2,1, 7,21, 0,23, 0.00,10.00,SummerDesignDay
8,22.943465253097018
10,79447435.67394908
704,766168.196131842
2,1, 7,21, 0,23,10.00,20.00,SummerDesignDay
8,22.91094626295795
10,81863302.86069502
704,766168.196131842
2,1, 7,21, 0,23,20.00,30.00,SummerDesignDay
8,22.878381130741823
10,82241202.10585319
704,766168.196131842
2,1, 7,21, 0,23,30.00,40.00,SummerDesignDay
8,22.845777936798176
10,83544537.51399993
704,766168.196131842
2,1, 7,21, 0,23,40.00,50.00,SummerDesignDay
8,22.813132938530747
10,84126201.75744017
704,766168.196131842
2,1, 7,21, 0,23,50.00,60.00,SummerDesignDay
8,22.780441618581024
10,84392323.06665097
704,766168.196131842
2,1, 7,21, 0,23, 0.00,60.00,SummerDesignDay
938,26.492197119077276
978,25.997489968998207
1018,26.031537841680188
1058,26.944979817418909
1098,26.93513870642884
1138,25.650335154285746
1178,25.684915250007195
1218,25.636586767067585
1258,25.864419082648444
1298,26.08540371075644
1338,26.116427353581618
1378,26.07882532282623
1418,26.215908899165954
1458,26.11490911046746
1498,26.142220301642923
1538,26.108988268074638
1578,26.234296310775844
1618,26.701019292846355
2,1, 7,21, 0,24, 0.00,10.00,SummerDesignDay
8,22.7477123587852
10,84454271.05334659
704,766168.196131842
2,1, 7,21, 0,24,10.00,20.00,SummerDesignDay
8,22.7149412932349
10,84532003.51127742
704,766168.196131842
2,1, 7,21, 0,24,20.00,30.00,SummerDesignDay
8,22.682122705825344
10,84591271.44111155
704,766168.196131842
2,1, 7,21, 0,24,30.00,40.00,SummerDesignDay
8,22.649266945139865
10,84629561.54423483
704,766168.196131842
2,1, 7,21, 0,24,40.00,50.00,SummerDesignDay
8,22.616367640006226
10,84661303.12785201
704,766168.196131842
2,1, 7,21, 0,24,50.00,60.00,SummerDesignDay