Program Version,EnergyPlus, Version 9.1.0-08d2e308bb, YMD=2019.04.09 23:07
1,5,Environment Title[],Latitude[deg],Longitude[deg],Time Zone[],Elevation[m]
2,8,Day of Simulation[],Month[],Day of Month[],DST Indicator[1=yes 0=no],Hour[],StartMinute[],EndMinute[],DayType
3,5,Cumulative Day of Simulation[],Month[],Day of Month[],DST Indicator[1=yes 0=no],DayType  ! When Daily Report Variables Requested
4,2,Cumulative Days of Simulation[],Month[]  ! When Monthly Report Variables Requested
5,1,Cumulative Days of Simulation[] ! When Run Period Report Variables Requested
6,1,Calendar Year of Simulation[] ! When Annual Report Variables Requested
7,9,Environment,Site Outdoor Air Drybulb Temperature [C] !Monthly [Value,Min,Day,Hour,Minute,Max,Day,Hour,Minute]
8,1,Environment,Site Outdoor Air Wetbulb Temperature [C] !TimeStep
938,1,CORE_BOTTOM ZN,Zone Air Temperature [C] !Hourly
939,7,CORE_BOTTOM ZN,Zone Air Relative Humidity [%] !Daily [Value,Min,Hour,Minute,Max,Hour,Minute]
978,1,CORE_MID ZN,Zone Air Temperature [C] !Hourly
979,7,CORE_MID ZN,Zone Air Relative Humidity [%] !Daily [Value,Min,Hour,Minute,Max,Hour,Minute]
1018,1,CORE_TOP ZN,Zone Air Temperature [C] !Hourly
1019,7,CORE_TOP ZN,Zone Air Relative Humidity [%] !Daily [Value,Min,Hour,Minute,Max,Hour,Minute]
1058,1,FIRSTFLOOR_PLENUM ZN,Zone Air Temperature [C] !Hourly
1059,7,FIRSTFLOOR_PLENUM ZN,Zone Air Relative Humidity [%] !Daily [Value,Min,Hour,Minute,Max,Hour,Minute]
1098,1,MIDFLOOR_PLENUM ZN,Zone Air Temperature [C] !Hourly
1099,7,MIDFLOOR_PLENUM ZN,Zone Air Relative Humidity [%] !Daily [Value,Min,Hour,Minute,Max,Hour,Minute]
1138,1,PERIMETER_BOT_ZN_1 ZN,Zone Air Temperature [C] !Hourly
1139,7,PERIMETER_BOT_ZN_1 ZN,Zone Air Relative Humidity [%] !Daily [Value,Min,Hour,Minute,Max,Hour,Minute]
1178,1,PERIMETER_BOT_ZN_2 ZN,Zone Air Temperature [C] !Hourly
1179,7,PERIMETER_BOT_ZN_2 ZN,Zone Air Relative Humidity [%] !Daily [Value,Min,Hour,Minute,Max,Hour,Minute]
1218,1,PERIMETER_BOT_ZN_3 ZN,Zone Air Temperature [C] !Hourly
1219,7,PERIMETER_BOT_ZN_3 ZN,Zone Air Relative Humidity [%] !Daily [Value,Min,Hour,Minute,Max,Hour,Minute]
1258,1,PERIMETER_BOT_ZN_4 ZN,Zone Air Temperature [C] !Hourly
1259,7,PERIMETER_BOT_ZN_4 ZN,Zone Air Relative Humidity [%] !Daily [Value,Min,Hour,Minute,Max,Hour,Minute]
1298,1,PERIMETER_MID_ZN_1 ZN,Zone Air Temperature [C] !Hourly
1299,7,PERIMETER_MID_ZN_1 ZN,Zone Air Relative Humidity [%] !Daily [Value,Min,Hour,Minute,Max,Hour,Minute]
1338,1,PERIMETER_MID_ZN_2 ZN,Zone Air Temperature [C] !Hourly
1339,7,PERIMETER_MID_ZN_2 ZN,Zone Air Relative Humidity [%] !Daily [Value,Min,Hour,Minute,Max,Hour,Minute]
1378,1,PERIMETER_MID_ZN_3 ZN,Zone Air Temperature [C] !Hourly
1379,7,PERIMETER_MID_ZN_3 ZN,Zone Air Relative Humidity [%] !Daily [Value,Min,Hour,Minute,Max,Hour,Minute]
1418,1,PERIMETER_MID_ZN_4 ZN,Zone Air Temperature [C] !Hourly
1419,7,PERIMETER_MID_ZN_4 ZN,Zone Air Relative Humidity [%] !Daily [Value,Min,Hour,Minute,Max,Hour,Minute]
1458,1,PERIMETER_TOP_ZN_1 ZN,Zone Air Temperature [C] !Hourly
1459,7,PERIMETER_TOP_ZN_1 ZN,Zone Air Relative Humidity [%] !Daily [Value,Min,Hour,Minute,Max,Hour,Minute]
1498,1,PERIMETER_TOP_ZN_2 ZN,Zone Air Temperature [C] !Hourly
1499,7,PERIMETER_TOP_ZN_2 ZN,Zone Air Relative Humidity [%] !Daily [Value,Min,Hour,Minute,Max,Hour,Minute]
1538,1,PERIMETER_TOP_ZN_3 ZN,Zone Air Temperature [C] !Hourly
1539,7,PERIMETER_TOP_ZN_3 ZN,Zone Air Relative Humidity [%] !Daily [Value,Min,Hour,Minute,Max,Hour,Minute]
1578,1,PERIMETER_TOP_ZN_4 ZN,Zone Air Temperature [C] !Hourly
1579,7,PERIMETER_TOP_ZN_4 ZN,Zone Air Relative Humidity [%] !Daily [Value,Min,Hour,Minute,Max,Hour,Minute]
1618,1,TOPFLOOR_PLENUM ZN,Zone Air Temperature [C] !Hourly
1619,7,TOPFLOOR_PLENUM ZN,Zone Air Relative Humidity [%] !Daily [Value,Min,Hour,Minute,Max,Hour,Minute]
10,1,Electricity:Facility [J] !TimeStep
704,1,Gas:Facility [J] !TimeStep
End of Data Dictionary
1,CHICAGO OHARE INTL AP ANN CLG .4% CONDNS DB=>MWB,  41.98, -87.92,  -6.00, 201.00
2,1, 7,21, 0, 1, 0.00,10.00,SummerDesignDay
8,21.292405530156598
10,85026734.91070482
704,766168.196131842
2,1, 7,21, 0, 1,10.00,20.00,SummerDesignDay
8,21.261960828085749
10,85039378.06426743
704,766168.196131842
2,1, 7,21, 0, 1,20.00,30.00,SummerDesignDay
8,21.2314850100004
10,85044767.08424029
704,766168.196131842
2,1, 7,21, 0, 1,30.00,40.00,SummerDesignDay
8,21.200957900234397
10,85044316.7970312
704,766168.196131842
2,1, 7,21, 0, 1,40.00,50.00,SummerDesignDay
8,21.170403647971147
10,85043048.52086333
704,766168.196131842
2,1, 7,21, 0, 1,50.00,60.00,SummerDesignDay
8,21.13981326633382
10,85030962.72950451
704,766168.196131842
2,1, 7,21, 0, 1, 0.00,60.00,SummerDesignDay
938,26.70008136970719
978,26.700041609256969
1018,26.700041995584884
1058,27.127110191671677
1098,27.117587327658403
1138,26.122229576669527
1178,25.495763038620244
1218,26.545484866887365
1258,25.773915010960509
1298,26.688261335976596
1338,26.11128355087291
1378,26.699464477008936
1418,26.42024393637436
1458,26.541526152758768
1498,26.052407086509999
1538,26.699391474081538
1578,26.275681904029857
1618,26.614665970839878
2,1, 7,21, 0, 2, 0.00,10.00,SummerDesignDay
8,21.11939664133838
10,85043378.91887118
704,766168.196131842
2,1, 7,21, 0, 2,10.00,20.00,SummerDesignDay
8,21.098968297299824
10,85049026.0837236
704,766168.196131842
2,1, 7,21, 0, 2,20.00,30.00,SummerDesignDay
8,21.078518554021277
10,85052059.38310494
704,766168.196131842
2,1, 7,21, 0, 2,30.00,40.00,SummerDesignDay
8,21.05805779383344
10,85052862.27538009
704,766168.196131842
2,1, 7,21, 0, 2,40.00,50.00,SummerDesignDay
8,21.0375756719312
10,85051141.48773089
704,766168.196131842
2,1, 7,21, 0, 2,50.00,60.00,SummerDesignDay
8,21.017081539415206
10,85047072.68706212
704,766168.196131842
2,1, 7,21, 0, 2, 0.00,60.00,SummerDesignDay
938,26.70005457304289
978,26.700042402887204
1018,26.70004250271518
1058,27.15845836864899
1098,27.145576286807409
1138,26.135625325462216
1178,25.49345766080722
1218,26.571841840946545
1258,25.74032368325948
1298,26.699408335226168
1338,26.13206803515082
1378,26.699405021684034
1418,26.41275435137049
1458,26.565327460327354
1498,26.060749281598008
1538,26.6993283499343
1578,26.25386604256704
1618,26.644215180211579
2,1, 7,21, 0, 3, 0.00,10.00,SummerDesignDay
8,21.00169730031167
10,85055220.90839516
704,766168.196131842
2,1, 7,21, 0, 3,10.00,20.00,SummerDesignDay
8,20.986303472921795
10,85061606.46362564
704,766168.196131842
2,1, 7,21, 0, 3,20.00,30.00,SummerDesignDay
8,20.970905447932056
10,85066515.00185538
704,766168.196131842
2,1, 7,21, 0, 3,30.00,40.00,SummerDesignDay
8,20.955492745559068
10,85070029.30593337
704,766168.196131842
2,1, 7,21, 0, 3,40.00,50.00,SummerDesignDay
8,20.94007141118511
10,85072250.20936728
704,766168.196131842
2,1, 7,21, 0, 3,50.00,60.00,SummerDesignDay
8,20.924645111828125
10,85073254.37025008
704,766168.196131842
2,1, 7,21, 0, 3, 0.00,60.00,SummerDesignDay
938,26.700037869669118
978,26.70003622479821
1018,26.70003627598055
1058,27.18754147814356
1098,27.169931694285095
1138,26.133188090890277
1178,25.47880041945682
1218,26.581597329023969
1258,25.69646828948142
1298,26.699381239873785
1338,26.13626908289717
1378,26.699380109839095
1418,26.389880378645925
1458,26.56765992814856
1498,26.05054076756848
1538,26.69930497190154
1578,26.215382280387418
1618,26.641704794557897
2,1, 7,21, 0, 4, 0.00,10.00,SummerDesignDay
8,20.909205468285163
10,85073091.28538545
704,766168.196131842
2,1, 7,21, 0, 4,10.00,20.00,SummerDesignDay
8,20.89375644446627
10,85071830.45697657
704,766168.196131842
2,1, 7,21, 0, 4,20.00,30.00,SummerDesignDay
8,20.878302617175487
10,85069494.59366192
704,766168.196131842
2,1, 7,21, 0, 4,30.00,40.00,SummerDesignDay
8,20.862834696278875
10,85066121.31300548
704,766168.196131842
2,1, 7,21, 0, 4,40.00,50.00,SummerDesignDay
8,20.84736758914109
10,85061754.61171207
704,766168.196131842
2,1, 7,21, 0, 4,50.00,60.00,SummerDesignDay
8,20.83187595308267
10,85056412.62560372
704,766168.196131842
2,1, 7,21, 0, 4, 0.00,60.00,SummerDesignDay
938,26.70003165899449
978,26.700031116730128
1018,26.70003115514976
1058,27.21504531046297
1098,27.191402938031329
1138,26.125450974818607
1178,25.460550420645246
1218,26.58541913688475
1258,25.652132733653475
1298,26.699372935082079
1338,26.134997355505506
1378,26.699371858760306
1418,26.363868515810045
1458,26.561452848443158
1498,26.03344104986463
1538,26.69929936851386
1578,26.17265257296434
1618,26.62816057688636
2,1, 7,21, 0, 5, 0.00,10.00,SummerDesignDay
8,20.82154626521223
10,85064096.38588444
704,766168.196131842
2,1, 7,21, 0, 5,10.00,20.00,SummerDesignDay
8,20.811212600492369
10,85070893.52552417
704,766168.196131842
2,1, 7,21, 0, 5,20.00,30.00,SummerDesignDay
8,20.800879423352016
10,85076966.60296273
704,766168.196131842
2,1, 7,21, 0, 5,30.00,40.00,SummerDesignDay
8,20.79053773449398
10,81978157.29326514
704,766168.196131842
2,1, 7,21, 0, 5,40.00,50.00,SummerDesignDay
8,20.780191971271316
10,81350570.55360039
704,766168.196131842
2,1, 7,21, 0, 5,50.00,60.00,SummerDesignDay
8,20.769841693173647
10,79459421.38488391
704,766168.196131842
2,1, 7,21, 0, 5, 0.00,60.00,SummerDesignDay
938,26.700025585308166
978,26.700025918415787
1018,26.700026016235328
1058,27.241652806546527
1098,27.212450816168134
1138,26.12839578308258
1178,25.511957604701128
1218,26.619186290118305
1258,25.622515179728585
1298,26.69936075823586
1338,26.203408192193917
1378,26.69933560863248
1418,26.35145791165591
1458,26.564270013117207
1498,26.08473560147966
1538,26.699258454276188
1578,26.142866544118666
1618,26.6132867416791
2,1, 7,21, 0, 6, 0.00,10.00,SummerDesignDay
8,20.780191971271316
10,70418193.26191624
704,766168.196131842
2,1, 7,21, 0, 6,10.00,20.00,SummerDesignDay
8,20.79053773449398
10,69599745.61705283
704,766168.196131842
2,1, 7,21, 0, 6,20.00,30.00,SummerDesignDay
8,20.800879423352016
10,69441843.87537869
704,766168.196131842
2,1, 7,21, 0, 6,30.00,40.00,SummerDesignDay
8,20.811212600492369
10,69612395.4238201
704,766168.196131842
2,1, 7,21, 0, 6,40.00,50.00,SummerDesignDay
8,20.82154626521223
10,70153932.38680391
704,766168.196131842
2,1, 7,21, 0, 6,50.00,60.00,SummerDesignDay
8,20.83187595308267
10,70282608.86369463
704,766168.196131842
2,1, 7,21, 0, 6, 0.00,60.00,SummerDesignDay
938,28.94814503192836
978,27.68229695130341
1018,27.60837711271195
1058,27.344810920027954
1098,27.29402730139775
1138,26.205004704270054
1178,26.951033125666045
1218,27.056651899784514
1258,25.68452115290994
1298,26.833249603798337
1338,27.59676529668293
1378,27.453008829596216
1418,26.41090409792963
1458,26.636474352879515
1498,27.46130745410127
1538,27.286934146397745
1578,26.1915646848807
1618,26.752636809289016
2,1, 7,21, 0, 7, 0.00,10.00,SummerDesignDay
8,20.867991483822359
10,112759360.85980688
704,766168.196131842
2,1, 7,21, 0, 7,10.00,20.00,SummerDesignDay
8,20.904056518827426
10,106256947.44607075
704,766168.196131842
2,1, 7,21, 0, 7,20.00,30.00,SummerDesignDay
8,20.94007141118511
10,99857606.97992827
704,766168.196131842
2,1, 7,21, 0, 7,30.00,40.00,SummerDesignDay
8,20.976035719324256
10,104253620.95755254
704,766168.196131842
2,1, 7,21, 0, 7,40.00,50.00,SummerDesignDay
8,21.011954667733219
10,101273527.84256436
704,766168.196131842
2,1, 7,21, 0, 7,50.00,60.00,SummerDesignDay
8,21.04781854686137
10,100953832.70300938
704,766168.196131842
2,1, 7,21, 0, 7, 0.00,60.00,SummerDesignDay
938,25.302892916864225
978,25.170246399683096
1018,25.161203009529
1058,27.481824102399857
1098,27.433102782535334
1138,25.019337784842848
1178,25.07162444000652
1218,25.106807419097227
1258,25.00361186276274
1298,25.035348844056619
1338,25.0971910960665
1378,25.129381529643039
1418,25.009400447164123
1458,25.028397629058003
1498,25.089219214571384
1538,25.09836041784556
1578,25.007941822358338
1618,27.264120831227087
2,1, 7,21, 0, 8, 0.00,10.00,SummerDesignDay
8,21.13471110025821
10,120099532.57879922
704,766168.196131842
2,1, 7,21, 0, 8,10.00,20.00,SummerDesignDay
8,21.221309664954885
10,119897070.81543686
704,766168.196131842
2,1, 7,21, 0, 8,20.00,30.00,SummerDesignDay
8,21.307616677758387
10,119840322.60373758
704,766168.196131842
2,1, 7,21, 0, 8,30.00,40.00,SummerDesignDay
8,21.393633962021306
10,117848771.04280623
704,766168.196131842
2,1, 7,21, 0, 8,40.00,50.00,SummerDesignDay
8,21.479363454901848
10,117446994.89367374
704,766168.196131842
2,1, 7,21, 0, 8,50.00,60.00,SummerDesignDay
8,21.56480572828825
10,117435513.08199354
704,766168.196131842
2,1, 7,21, 0, 8, 0.00,60.00,SummerDesignDay
938,24.18137669111805
978,24.17064128212064
1018,24.1625999639965
1058,27.390541008371149
1098,27.372157723365207
1138,24.014872680950324
1178,24.079029509991604
1218,24.08852000575186
1258,24.014782343302213
1298,24.017219206938809
1338,24.08601178177116
1378,24.094937524208324
1418,24.01721428932486
1458,24.01707065636721
1498,24.080747413908516
1538,24.049201692066054
1578,24.017038619132689
1618,27.600401352857145
2,1, 7,21, 0, 9, 0.00,10.00,SummerDesignDay
8,21.659959494127649
10,117347213.90033175
704,766168.196131842
2,1, 7,21, 0, 9,10.00,20.00,SummerDesignDay
8,21.754763580187868
10,117560331.73415488
704,766168.196131842
2,1, 7,21, 0, 9,20.00,30.00,SummerDesignDay
8,21.849216689035449
10,117897432.99523917
704,766168.196131842
2,1, 7,21, 0, 9,30.00,40.00,SummerDesignDay
8,21.94331558480392
10,118322517.51268369
704,766168.196131842
2,1, 7,21, 0, 9,40.00,50.00,SummerDesignDay
8,22.03707130951595
10,118806273.8805557
704,766168.196131842
2,1, 7,21, 0, 9,50.00,60.00,SummerDesignDay
8,22.13048294716832
10,119363185.77174567
704,766168.196131842
2,1, 7,21, 0, 9, 0.00,60.00,SummerDesignDay
938,23.99940299485902
978,23.999371795565254
1018,23.99936684783256
1058,27.348053797843975
1098,27.333594163646955
1138,23.99923722740979
1178,23.99943648748054
1218,23.99928816845727
1258,23.99926702370833
1298,23.999248802986175
1338,23.999409331243994
1378,23.99928294105784
1418,23.999269808991973
1458,23.999212997934789
1498,23.99937425958034
1538,23.999249190469358
1578,23.99923238556515
1618,28.145330449286165
2,1, 7,21, 0,10, 0.00,10.00,SummerDesignDay
8,22.213769814432565
10,119880403.11661552
704,766168.196131842
2,1, 7,21, 0,10,10.00,20.00,SummerDesignDay
8,22.29678365659492
10,120410828.10787989
704,766168.196131842
2,1, 7,21, 0,10,20.00,30.00,SummerDesignDay
8,22.379526518080718
10,120935262.37510947
704,766168.196131842
2,1, 7,21, 0,10,30.00,40.00,SummerDesignDay
8,22.461998883090386
10,121450015.5962194
704,766168.196131842
2,1, 7,21, 0,10,40.00,50.00,SummerDesignDay
8,22.54420357090447
10,121948262.4783578
704,766168.196131842
2,1, 7,21, 0,10,50.00,60.00,SummerDesignDay
8,22.626140889876245
10,122425283.07456571
704,766168.196131842
2,1, 7,21, 0,10, 0.00,60.00,SummerDesignDay
938,23.99941040192768
978,23.99940777136237
1018,23.999404560072919
1058,27.359222382622624
1098,27.343149432559298
1138,23.999307207318524
1178,23.999468973033748
1218,23.999339498195679
1258,23.99932843114699
1298,23.99929644301775
1338,23.99943052063965
1378,23.99931918584187
1418,23.999311455060214
1458,23.999266894758124
1498,23.99940372870154
1538,23.9992886322506
1578,23.999278804855419
1618,28.83270608528632
2,1, 7,21, 0,11, 0.00,10.00,SummerDesignDay
8,22.698217126852719
10,122822261.62336986
704,766168.196131842
2,1, 7,21, 0,11,10.00,20.00,SummerDesignDay
8,22.770087609245694
10,123190379.41935872
704,766168.196131842
2,1, 7,21, 0,11,20.00,30.00,SummerDesignDay
8,22.841753902583265
10,123530784.42969604
704,766168.196131842
2,1, 7,21, 0,11,30.00,40.00,SummerDesignDay
8,22.913216778184393
10,123846606.49778869
704,766168.196131842
2,1, 7,21, 0,11,40.00,50.00,SummerDesignDay
8,22.984480922747989
10,124142925.55865769
704,766168.196131842
2,1, 7,21, 0,11,50.00,60.00,SummerDesignDay
8,23.055539233117515
10,124428282.53993565
704,766168.196131842
2,1, 7,21, 0,11, 0.00,60.00,SummerDesignDay
938,23.99939923161855
978,23.999399825181354
1018,23.999399000336497
1058,27.36755880112179
1098,27.35151810539185
1138,23.999340536115527
1178,23.99946304041963
1218,23.999342302350283
1258,23.999335514189455
1298,23.999318265019999
1338,23.999423285449624
1378,23.99931842151861
1418,23.999312981561716
1458,23.99929338009396
1498,23.99939735403734
1538,23.999291390249156
1578,23.999284340907115
1618,29.507296269386484
2,1, 7,21, 0,12, 0.00,10.00,SummerDesignDay
8,23.102801503400955
10,124559342.7681467
704,766168.196131842
2,1, 7,21, 0,12,10.00,20.00,SummerDesignDay
8,23.149970529930298
10,124689534.20458664
704,766168.196131842
2,1, 7,21, 0,12,20.00,30.00,SummerDesignDay
8,23.197054535495359
10,124829240.73179209
704,766168.196131842
2,1, 7,21, 0,12,30.00,40.00,SummerDesignDay
8,23.24405091760279
10,124987723.63348046
704,766168.196131842
2,1, 7,21, 0,12,40.00,50.00,SummerDesignDay
8,23.290959239877084
10,125189346.86003976
704,5071983.0838768179
2,1, 7,21, 0,12,50.00,60.00,SummerDesignDay
8,23.337780161397366
10,125467440.21587087
704,766168.196131842
2,1, 7,21, 0,12, 0.00,60.00,SummerDesignDay
938,23.999383134485855
978,23.99938562251674
1018,23.999388070670979
1058,27.36665480580352
1098,27.353363415598737
1138,23.99936227472554
1178,23.999436300681997
1218,23.99933664352339
1258,23.999333081081717
1298,23.999333210607874
1338,23.99939516952277
1378,23.99931119124769
1418,23.99930786314358
1458,23.999311113619269
1498,23.999369031598304
1538,23.99928767902442
1578,23.999282973044669
1618,30.05511589245624
2,1, 7,21, 0,13, 0.00,10.00,SummerDesignDay
8,23.375168696321454
10,125814697.47624727
704,766168.196131842
2,1, 7,21, 0,13,10.00,20.00,SummerDesignDay
8,23.412509317763463
10,126227380.97635423
704,5150973.015438185
2,1, 7,21, 0,13,20.00,30.00,SummerDesignDay
8,23.44978183331926
10,126695956.40986762
704,766168.196131842
2,1, 7,21, 0,13,30.00,40.00,SummerDesignDay
8,23.48701638811906
10,127206023.49018123
704,5164659.460757908
2,1, 7,21, 0,13,40.00,50.00,SummerDesignDay
8,23.52417733438429
10,127745461.10948466
704,766168.196131842
2,1, 7,21, 0,13,50.00,60.00,SummerDesignDay
8,23.561301163043504
10,128316682.67370172
704,766168.196131842
2,1, 7,21, 0,13, 0.00,60.00,SummerDesignDay
938,23.999383624931459
978,23.999384723292676
1018,23.999391555489525
1058,27.359436878223066
1098,27.352589047714607
1138,23.99938872904048
1178,23.999389412942919
1218,23.999341249981609
1258,23.999299998738164
1298,23.99935688148651
1338,23.999354365435797
1378,23.999316094896526
1418,23.999281119936215
1458,23.999336717355729
1498,23.999331357258517
1538,23.99929637376826
1578,23.999263367091385
1618,30.418556289173766
2,1, 7,21, 0,14, 0.00,10.00,SummerDesignDay
8,23.584468652232446
10,128872302.35586255
704,5123276.522752967
2,1, 7,21, 0,14,10.00,20.00,SummerDesignDay
8,23.607614591370639
10,129330715.29897659
704,766168.196131842
2,1, 7,21, 0,14,20.00,30.00,SummerDesignDay
8,23.630734203455029
10,129763643.36743827
704,4467538.424898702
2,1, 7,21, 0,14,30.00,40.00,SummerDesignDay
8,23.65384967253545
10,129849639.94472619
704,1433874.8281251004
2,1, 7,21, 0,14,40.00,50.00,SummerDesignDay
8,23.676931270816597
10,129936368.9986654
704,766168.196131842
2,1, 7,21, 0,14,50.00,60.00,SummerDesignDay
8,23.699991650503447
10,130022961.67803234
704,5128311.591821161
2,1, 7,21, 0,14, 0.00,60.00,SummerDesignDay
938,24.013699199996258
978,24.009767277228418
1018,24.059582147269898
1058,27.357994139219938
1098,27.35783453575148
1138,24.014757521906885
1178,24.011998114070477
1218,24.049241936135585
1258,24.01638129669401
1298,24.016405878852109
1338,24.013842667961567
1378,24.054854176579054
1418,24.018023051856635
1458,24.017447117562609
1498,24.014966342313035
1538,24.05628417729014
1578,24.019022759278387
1618,30.612197398131856
2,1, 7,21, 0,15, 0.00,10.00,SummerDesignDay
8,23.699991650503447
10,130029972.92294367
704,766168.196131842
2,1, 7,21, 0,15,10.00,20.00,SummerDesignDay
8,23.699991650503447
10,130035893.44039737
704,766168.196131842
2,1, 7,21, 0,15,20.00,30.00,SummerDesignDay
8,23.699991650503447
10,130040800.24254596
704,766168.196131842
2,1, 7,21, 0,15,30.00,40.00,SummerDesignDay
8,23.699991650503447
10,130044878.9375606
704,766168.196131842
2,1, 7,21, 0,15,40.00,50.00,SummerDesignDay
8,23.699991650503447
10,130048261.6215745
704,4940004.817929791
2,1, 7,21, 0,15,50.00,60.00,SummerDesignDay
8,23.699991650503447
10,130051029.16540437
704,766168.196131842
2,1, 7,21, 0,15, 0.00,60.00,SummerDesignDay
938,24.07243310587586
978,24.051058798719067
1018,24.20357697059248
1058,27.368432812488306
1098,27.376398911733337
1138,24.07277819170983
1178,24.061900971979033
1218,24.175824580606148
1258,24.10210652866299
1298,24.082287069382735
1338,24.072132930615664
1378,24.192403372020079
1418,24.11148816162608
1458,24.08863736257914
1498,24.0786980535197
1538,24.216217626624514
1578,24.117420187836406
1618,30.651829770359496
2,1, 7,21, 0,16, 0.00,10.00,SummerDesignDay
8,23.672307358563665
10,129958743.8348438
704,766168.196131842
2,1, 7,21, 0,16,10.00,20.00,SummerDesignDay
8,23.64460948071794
10,129865859.08912267
704,766168.196131842
2,1, 7,21, 0,16,20.00,30.00,SummerDesignDay
8,23.61686844545739
10,129772326.78726413
704,766168.196131842
2,1, 7,21, 0,16,30.00,40.00,SummerDesignDay
8,23.589091188236055
10,129678484.79765347
704,4940899.979081725
2,1, 7,21, 0,16,40.00,50.00,SummerDesignDay
8,23.561301163043504
10,129584569.13094922
704,766168.196131842
2,1, 7,21, 0,16,50.00,60.00,SummerDesignDay
8,23.533467080370163
10,129490460.16056942
704,766168.196131842
2,1, 7,21, 0,16, 0.00,60.00,SummerDesignDay
938,24.062179210095608
978,24.0430795830904
1018,24.205294322337854
1058,27.376790511851899
1098,27.394277256650594
1138,24.055541906065228
1178,24.050752604152295
1218,24.12666334016227
1258,24.150153320453698
1298,24.064157611446054
1338,24.059879448512935
1378,24.143737232389428
1418,24.166218152776513
1458,24.07005478410807
1498,24.065842458231413
1538,24.17123012496566
1578,24.18863328337469
1618,30.502008099222207
2,1, 7,21, 0,17, 0.00,10.00,SummerDesignDay
8,23.496315172028504
10,129365938.10418828
704,766168.196131842
2,1, 7,21, 0,17,10.00,20.00,SummerDesignDay
8,23.459098962673627
10,129030680.48387043
704,5047960.02991071
2,1, 7,21, 0,17,20.00,30.00,SummerDesignDay
8,23.421835869543999
10,128418064.22226888
704,766168.196131842
2,1, 7,21, 0,17,30.00,40.00,SummerDesignDay
8,23.384509217485939
10,127658229.33931233
704,766168.196131842
2,1, 7,21, 0,17,40.00,50.00,SummerDesignDay
8,23.34713053816139
10,126674689.29110392
704,766168.196131842
2,1, 7,21, 0,17,50.00,60.00,SummerDesignDay
8,23.309695989572697
10,125691526.05492015
704,5024381.069786281
2,1, 7,21, 0,17, 0.00,60.00,SummerDesignDay
938,24.002294284632808
978,24.001170808309273
1018,24.034551989277927
1058,27.362876585907846
1098,27.390143835313365
1138,24.001621534095567
1178,24.001507656278397
1218,24.001891757653284
1258,24.089431713625545
1298,24.002115493138338
1338,24.002023381649534
1378,24.002740652713638
1418,24.094712835234799
1458,24.002473205729915
1498,24.002379006339237
1538,24.004884863127548
1578,24.104067830453749
1618,30.09977852002899
2,1, 7,21, 0,18, 0.00,10.00,SummerDesignDay
8,23.262826699708766
10,124719191.2171702
704,766168.196131842
2,1, 7,21, 0,18,10.00,20.00,SummerDesignDay
8,23.21586584854855
10,123810683.58462565
704,766168.196131842
2,1, 7,21, 0,18,20.00,30.00,SummerDesignDay
8,23.168816376440029
10,122922423.08765549
704,766168.196131842
2,1, 7,21, 0,18,30.00,40.00,SummerDesignDay
8,23.12167829542215
10,121952455.67778965
704,766168.196131842
2,1, 7,21, 0,18,40.00,50.00,SummerDesignDay
8,23.074452033295477
10,121022192.17052202
704,766168.196131842
2,1, 7,21, 0,18,50.00,60.00,SummerDesignDay
8,23.02714043821021
10,120122177.3086494
704,2083561.0234340418
2,1, 7,21, 0,18, 0.00,60.00,SummerDesignDay
938,23.99927307562864
978,23.99927806867011
1018,23.999300100484775
1058,27.327826681663909
1098,27.36095121048113
1138,23.99928507615131
1178,23.9992836321653
1218,23.999240661481094
1258,23.99951219809832
1298,23.999253492361988
1338,23.99925102497176
1378,23.99921744525236
1418,23.99951622202283
1458,23.999238975227244
1498,23.999235705577435
1538,23.99920805915303
1578,23.999532889937126
1618,29.48049200084915
2,1, 7,21, 0,19, 0.00,10.00,SummerDesignDay
8,22.955998030729086
10,118891477.51581373
704,3540744.4471393006
2,1, 7,21, 0,19,10.00,20.00,SummerDesignDay
8,22.884656963830858
10,118068816.62786044
704,766168.196131842
2,1, 7,21, 0,19,20.00,30.00,SummerDesignDay
8,22.813112648278538
10,117291247.61132248
704,766168.196131842
2,1, 7,21, 0,19,30.00,40.00,SummerDesignDay
8,22.74136475535084
10,115865482.02505215
704,766168.196131842
2,1, 7,21, 0,19,40.00,50.00,SummerDesignDay
8,22.669412429768046
10,115432594.13216165
704,766168.196131842
2,1, 7,21, 0,19,50.00,60.00,SummerDesignDay
8,22.597249180691447
10,114643456.29107152
704,766168.196131842
2,1, 7,21, 0,19, 0.00,60.00,SummerDesignDay
938,23.999274846672109
978,23.99928859200406
1018,23.99930754236269
1058,27.27076673214627
1098,27.305548399313606
1138,23.999281256455153
1178,23.999278543142976
1218,23.999279424779329
1258,23.999374342697853
1298,23.99924443857013
1338,23.99924078263508
1378,23.999247010363406
1418,23.999327403422105
1458,23.999228276596566
1498,23.999223795917048
1538,23.999231635405569
1578,23.999304480756395
1618,28.726416007778427
2,1, 7,21, 0,20, 0.00,10.00,SummerDesignDay
8,22.54420357090447
10,115277299.09580072
704,766168.196131842
2,1, 7,21, 0,20,10.00,20.00,SummerDesignDay
8,22.49104180927024
10,118886390.92677532
704,766168.196131842
2,1, 7,21, 0,20,20.00,30.00,SummerDesignDay
8,22.437767475426619
10,117920522.63081812
704,766168.196131842
2,1, 7,21, 0,20,30.00,40.00,SummerDesignDay
8,22.384385775235136
10,117112175.99044621
704,766168.196131842
2,1, 7,21, 0,20,40.00,50.00,SummerDesignDay
8,22.33088606837434
10,116384680.6088988
704,766168.196131842
2,1, 7,21, 0,20,50.00,60.00,SummerDesignDay
8,22.277273112035258
10,115715714.50047998
704,766168.196131842
2,1, 7,21, 0,20, 0.00,60.00,SummerDesignDay
938,23.99929658526513
978,23.99930699879157
1018,23.99932495831607
1058,27.184734577366638
1098,27.2164062347795
1138,23.999283738709719
1178,23.999281359715856
1218,23.9993142479037
1258,23.999389915157939
1298,23.999249476084616
1338,23.999246983232984
1378,23.999271827157064
1418,23.99933834595851
1458,23.99923440898593
1498,23.999230919657664
1538,23.99925534621302
1578,23.99931576259543
1618,27.84869869375377
2,1, 7,21, 0,21, 0.00,10.00,SummerDesignDay
8,22.233324669547739
10,115136397.90862698
704,766168.196131842
2,1, 7,21, 0,21,10.00,20.00,SummerDesignDay
8,22.189299394088044
10,114596626.389259
704,766168.196131842
2,1, 7,21, 0,21,20.00,30.00,SummerDesignDay
8,22.145202107551495
10,114089495.03404729
704,766168.196131842
2,1, 7,21, 0,21,30.00,40.00,SummerDesignDay
8,22.101023102268618
10,113609875.53169927
704,766168.196131842
2,1, 7,21, 0,21,40.00,50.00,SummerDesignDay
8,22.056767334331388
10,113153635.3416652
704,766168.196131842
2,1, 7,21, 0,21,50.00,60.00,SummerDesignDay
8,22.012434213349633
10,112717478.06308617
704,766168.196131842
2,1, 7,21, 0,21, 0.00,60.00,SummerDesignDay
938,23.999320366447806
978,23.99932819640466
1018,23.999342694285077
1058,27.086207073329633
1098,27.116022011878873
1138,23.999290022838925
1178,23.9992889175001
1218,23.99929379907296
1258,23.999337983918694
1298,23.999258856543425
1338,23.99925678889845
1378,23.9992596196461
1418,23.999294224868163
1458,23.999241789453639
1498,23.999238582068526
1538,23.999242880050266
1578,23.999272479079925
1618,27.077572370060908
2,1, 7,21, 0,22, 0.00,10.00,SummerDesignDay
8,21.96802372811924
10,112298768.56710677
704,766168.196131842
2,1, 7,21, 0,22,10.00,20.00,SummerDesignDay
8,21.92353584370884
10,111895593.34981624
704,766168.196131842
2,1, 7,21, 0,22,20.00,30.00,SummerDesignDay
8,21.878969210749209
10,111507766.91203289
704,766168.196131842
2,1, 7,21, 0,22,30.00,40.00,SummerDesignDay
8,21.834324395018095
10,111131528.28881519
704,766168.196131842
2,1, 7,21, 0,22,40.00,50.00,SummerDesignDay
8,21.789601824015393
10,110765712.06045452
704,766168.196131842
2,1, 7,21, 0,22,50.00,60.00,SummerDesignDay
8,21.744800023061559
10,110409701.35157508
704,766168.196131842
2,1, 7,21, 0,22, 0.00,60.00,SummerDesignDay
938,23.99932365586542
978,23.99933128377221
1018,23.99934110241878
1058,26.993575742106107
1098,27.018614778269535
1138,23.999284587813198
1178,23.999284157121236
1218,23.999282226885698
1258,23.999314934803409
1298,23.999255033935698
1338,23.999253277169914
1378,23.999252241810763
1418,23.999276510719679
1458,23.999234471283683
1498,23.999231517016125
1538,23.99923227906918
1578,23.999252873785847
1618,26.54625026178015
2,1, 7,21, 0,23, 0.00,10.00,SummerDesignDay
8,21.709900736545106
10,81293036.91016859
704,766168.196131842
2,1, 7,21, 0,23,10.00,20.00,SummerDesignDay
8,21.67495304215166
10,82877164.32368852
704,766168.196131842
2,1, 7,21, 0,23,20.00,30.00,SummerDesignDay
8,21.639958113829917
10,83907608.58833742
704,766168.196131842
2,1, 7,21, 0,23,30.00,40.00,SummerDesignDay
8,21.604914610606316
10,85352544.11077851
704,766168.196131842
2,1, 7,21, 0,23,40.00,50.00,SummerDesignDay
8,21.569819097467279
10,87303282.95375516
704,766168.196131842
2,1, 7,21, 0,23,50.00,60.00,SummerDesignDay
8,21.534679356042316
10,85924263.82945298
704,766168.196131842
2,1, 7,21, 0,23, 0.00,60.00,SummerDesignDay
938,26.50046221131571
978,26.156011411939688
1018,26.150393883568019
1058,26.98353006435556
1098,26.978040681232217
1138,25.467857251819209
1178,25.067878063893603
1218,25.707948775957389
1258,25.331846149228768
1298,25.901829529994527
1338,25.524086915514606
1378,26.08013479298042
1418,25.80927440528289
1458,25.823261433294296
1498,25.502701805356084
1538,26.01913265395765
1578,25.729842289668768
1618,26.32825054607348
2,1, 7,21, 0,24, 0.00,10.00,SummerDesignDay
8,21.49949053597118
10,86367893.23976042
704,766168.196131842
2,1, 7,21, 0,24,10.00,20.00,SummerDesignDay
8,21.464253674051844
10,86522965.97425376
704,766168.196131842
2,1, 7,21, 0,24,20.00,30.00,SummerDesignDay
8,21.428968817991497
10,86610706.62603252
704,766168.196131842
2,1, 7,21, 0,24,30.00,40.00,SummerDesignDay
8,21.393633962021306
10,86662647.22614095
704,766168.196131842
2,1, 7,21, 0,24,40.00,50.00,SummerDesignDay