Program Version,EnergyPlus, Version 9.1.0-08d2e308bb, YMD=2019.04.09 23:11
1,5,Environment Title[],Latitude[deg],Longitude[deg],Time Zone[],Elevation[m]
2,8,Day of Simulation[],Month[],Day of Month[],DST Indicator[1=yes 0=no],Hour[],StartMinute[],EndMinute[],DayType
3,5,Cumulative Day of Simulation[],Month[],Day of Month[],DST Indicator[1=yes 0=no],DayType  ! When Daily Report Variables Requested
4,2,Cumulative Days of Simulation[],Month[]  ! When Monthly Report Variables Requested
5,1,Cumulative Days of Simulation[] ! When Run Period Report Variables Requested
6,1,Calendar Year of Simulation[] ! When Annual Report Variables Requested
7,9,Environment,Site Outdoor Air Drybulb Temperature [C] !Monthly [Value,Min,Day,Hour,Minute,Max,Day,Hour,Minute]
8,1,Environment,Site Outdoor Air Wetbulb Temperature [C] !TimeStep
938,1,CORE_BOTTOM ZN,Zone Air Temperature [C] !Hourly
939,7,CORE_BOTTOM ZN,Zone Air Relative Humidity [%] !Daily [Value,Min,Hour,Minute,Max,Hour,Minute]
978,1,CORE_MID ZN,Zone Air Temperature [C] !Hourly
979,7,CORE_MID ZN,Zone Air Relative Humidity [%] !Daily [Value,Min,Hour,Minute,Max,Hour,Minute]
1018,1,CORE_TOP ZN,Zone Air Temperature [C] !Hourly
1019,7,CORE_TOP ZN,Zone Air Relative Humidity [%] !Daily [Value,Min,Hour,Minute,Max,Hour,Minute]
1058,1,FIRSTFLOOR_PLENUM ZN,Zone Air Temperature [C] !Hourly
1059,7,FIRSTFLOOR_PLENUM ZN,Zone Air Relative Humidity [%] !Daily [Value,Min,Hour,Minute,Max,Hour,Minute]
1098,1,MIDFLOOR_PLENUM ZN,Zone Air Temperature [C] !Hourly
1099,7,MIDFLOOR_PLENUM ZN,Zone Air Relative Humidity [%] !Daily [Value,Min,Hour,Minute,Max,Hour,Minute]
1138,1,PERIMETER_BOT_ZN_1 ZN,Zone Air Temperature [C] !Hourly
1139,7,PERIMETER_BOT_ZN_1 ZN,Zone Air Relative Humidity [%] !Daily [Value,Min,Hour,Minute,Max,Hour,Minute]
1178,1,PERIMETER_BOT_ZN_2 ZN,Zone Air Temperature [C] !Hourly
1179,7,PERIMETER_BOT_ZN_2 ZN,Zone Air Relative Humidity [%] !Daily [Value,Min,Hour,Minute,Max,Hour,Minute]
1218,1,PERIMETER_BOT_ZN_3 ZN,Zone Air Temperature [C] !Hourly
1219,7,PERIMETER_BOT_ZN_3 ZN,Zone Air Relative Humidity [%] !Daily [Value,Min,Hour,Minute,Max,Hour,Minute]
1258,1,PERIMETER_BOT_ZN_4 ZN,Zone Air Temperature [C] !Hourly
1259,7,PERIMETER_BOT_ZN_4 ZN,Zone Air Relative Humidity [%] !Daily [Value,Min,Hour,Minute,Max,Hour,Minute]
1298,1,PERIMETER_MID_ZN_1 ZN,Zone Air Temperature [C] !Hourly
1299,7,PERIMETER_MID_ZN_1 ZN,Zone Air Relative Humidity [%] !Daily [Value,Min,Hour,Minute,Max,Hour,Minute]
1338,1,PERIMETER_MID_ZN_2 ZN,Zone Air Temperature [C] !Hourly
1339,7,PERIMETER_MID_ZN_2 ZN,Zone Air Relative Humidity [%] !Daily [Value,Min,Hour,Minute,Max,Hour,Minute]
1378,1,PERIMETER_MID_ZN_3 ZN,Zone Air Temperature [C] !Hourly
1379,7,PERIMETER_MID_ZN_3 ZN,Zone Air Relative Humidity [%] !Daily [Value,Min,Hour,Minute,Max,Hour,Minute]
1418,1,PERIMETER_MID_ZN_4 ZN,Zone Air Temperature [C] !Hourly
1419,7,PERIMETER_MID_ZN_4 ZN,Zone Air Relative Humidity [%] !Daily [Value,Min,Hour,Minute,Max,Hour,Minute]
1458,1,PERIMETER_TOP_ZN_1 ZN,Zone Air Temperature [C] !Hourly
1459,7,PERIMETER_TOP_ZN_1 ZN,Zone Air Relative Humidity [%] !Daily [Value,Min,Hour,Minute,Max,Hour,Minute]
1498,1,PERIMETER_TOP_ZN_2 ZN,Zone Air Temperature [C] !Hourly
1499,7,PERIMETER_TOP_ZN_2 ZN,Zone Air Relative Humidity [%] !Daily [Value,Min,Hour,Minute,Max,Hour,Minute]
1538,1,PERIMETER_TOP_ZN_3 ZN,Zone Air Temperature [C] !Hourly
1539,7,PERIMETER_TOP_ZN_3 ZN,Zone Air Relative Humidity [%] !Daily [Value,Min,Hour,Minute,Max,Hour,Minute]
1578,1,PERIMETER_TOP_ZN_4 ZN,Zone Air Temperature [C] !Hourly
1579,7,PERIMETER_TOP_ZN_4 ZN,Zone Air Relative Humidity [%] !Daily [Value,Min,Hour,Minute,Max,Hour,Minute]
1618,1,TOPFLOOR_PLENUM ZN,Zone Air Temperature [C] !Hourly
1619,7,TOPFLOOR_PLENUM ZN,Zone Air Relative Humidity [%] !Daily [Value,Min,Hour,Minute,Max,Hour,Minute]
10,1,Electricity:Facility [J] !TimeStep
704,1,Gas:Facility [J] !TimeStep
End of Data Dictionary
1,HOUSTON BUSH INTERCONTINENTAL ANN CLG .4% CONDNS DB=>MWB,  30.00, -95.37,  -6.00,  29.00
2,1, 7,21, 0, 1, 0.00,10.00,SummerDesignDay
8,22.55515166200166
10,79518695.26745995
704,766168.196131842
2,1, 7,21, 0, 1,10.00,20.00,SummerDesignDay
8,22.526850134727679
10,79536389.23531249
704,766168.196131842
2,1, 7,21, 0, 1,20.00,30.00,SummerDesignDay
8,22.498517194785639
10,79551946.42392357
704,766168.196131842
2,1, 7,21, 0, 1,30.00,40.00,SummerDesignDay
8,22.47015203492528
10,79562711.77951291
704,766168.196131842
2,1, 7,21, 0, 1,40.00,50.00,SummerDesignDay
8,22.441756223232479
10,79567228.64088506
704,766168.196131842
2,1, 7,21, 0, 1,50.00,60.00,SummerDesignDay
8,22.41333327947745
10,79566798.44400639
704,766168.196131842
2,1, 7,21, 0, 1, 0.00,60.00,SummerDesignDay
938,26.700026600562955
978,26.699996034891645
1018,26.699999828544624
1058,27.135699566300727
1098,27.13393778573291
1138,26.699686797850249
1178,26.091863818987535
1218,26.69973513685511
1258,26.198499247212387
1298,26.699549485771447
1338,26.62796660820118
1378,26.699551031069203
1418,26.699529711258309
1458,26.699470017002228
1498,26.65163108118888
1538,26.699472310949646
1578,26.68615200151765
1618,27.0090830445836
2,1, 7,21, 0, 2, 0.00,10.00,SummerDesignDay
8,22.394357103043434
10,79581620.38277854
704,766168.196131842
2,1, 7,21, 0, 2,10.00,20.00,SummerDesignDay
8,22.375371366599194
10,79593874.53117055
704,766168.196131842
2,1, 7,21, 0, 2,20.00,30.00,SummerDesignDay
8,22.356372115234558
10,79603012.6447617
704,766168.196131842
2,1, 7,21, 0, 2,30.00,40.00,SummerDesignDay
8,22.33736295549441
10,79607901.71303015
704,766168.196131842
2,1, 7,21, 0, 2,40.00,50.00,SummerDesignDay
8,22.31833500798559
10,79611537.95774624
704,766168.196131842
2,1, 7,21, 0, 2,50.00,60.00,SummerDesignDay
8,22.299293004300805
10,79613097.06390716
704,766168.196131842
2,1, 7,21, 0, 2, 0.00,60.00,SummerDesignDay
938,26.700014250244207
978,26.700003028522926
1018,26.700005104926054
1058,27.184013408754454
1098,27.17826298549365
1138,26.69969355143412
1178,26.12443433462111
1218,26.6996948548969
1258,26.204262083919834
1298,26.699504372695107
1338,26.68144575070728
1378,26.69950607469357
1418,26.69949016682156
1458,26.69942278107185
1498,26.694001223722567
1538,26.699425010482483
1578,26.69940733967397
1618,27.035217057263833
2,1, 7,21, 0, 3, 0.00,10.00,SummerDesignDay
8,22.28500102240784
10,79623564.65575019
704,766168.196131842
2,1, 7,21, 0, 3,10.00,20.00,SummerDesignDay
8,22.27070533801161
10,79634085.12598364
704,766168.196131842
2,1, 7,21, 0, 3,20.00,30.00,SummerDesignDay
8,22.256397908168304
10,79642823.93231555
704,766168.196131842
2,1, 7,21, 0, 3,30.00,40.00,SummerDesignDay
8,22.24208582934788
10,79650963.26539766
704,766168.196131842
2,1, 7,21, 0, 3,40.00,50.00,SummerDesignDay
8,22.227762416136
10,79657620.74512656
704,766168.196131842
2,1, 7,21, 0, 3,50.00,60.00,SummerDesignDay
8,22.213434369456495
10,79662865.64306994
704,766168.196131842
2,1, 7,21, 0, 3, 0.00,60.00,SummerDesignDay
938,26.70000916594864
978,26.700005220672467
1018,26.700006218210999
1058,27.228184046266049
1098,27.21847592988171
1138,26.6996688944517
1178,26.1348436083296
1218,26.699670902996905
1258,26.191505663567815
1298,26.69948750681654
1338,26.699452036689239
1378,26.699488902644164
1418,26.699475911716875
1458,26.699407379911965
1498,26.699391968806663
1538,26.699409197144957
1578,26.697588589476579
1618,27.028080890916468
2,1, 7,21, 0, 4, 0.00,10.00,SummerDesignDay
8,22.199094133336208
10,79668067.07564929
704,766168.196131842
2,1, 7,21, 0, 4,10.00,20.00,SummerDesignDay
8,22.184746117844438
10,79674460.53943335
704,766168.196131842
2,1, 7,21, 0, 4,20.00,30.00,SummerDesignDay
8,22.170394208674524
10,79680295.56361951
704,766168.196131842
2,1, 7,21, 0, 4,30.00,40.00,SummerDesignDay
8,22.156029943052258
10,79684965.58721696
704,766168.196131842
2,1, 7,21, 0, 4,40.00,50.00,SummerDesignDay
8,22.14166229604138
10,79688547.49620033
704,766168.196131842
2,1, 7,21, 0, 4,50.00,60.00,SummerDesignDay
8,22.127282061051376
10,79690937.85273692
704,766168.196131842
2,1, 7,21, 0, 4, 0.00,60.00,SummerDesignDay
938,26.700005967335753
978,26.700005077718008
1018,26.700005501835709
1058,27.270410672701769
1098,27.256777362543287
1138,26.69965507380188
1178,26.137792972064458
1218,26.69965714256291
1258,26.174560479044925
1298,26.699481737235279
1338,26.69946662343288
1378,26.69948275387433
1418,26.699471041459444
1458,26.699403222133438
1498,26.699384847180754
1538,26.69940461758932
1578,26.6856585338132
1618,27.011481054603043
2,1, 7,21, 0, 5, 0.00,10.00,SummerDesignDay
8,22.117693369939994
10,79704116.77787367
704,766168.196131842
2,1, 7,21, 0, 5,10.00,20.00,SummerDesignDay
8,22.108096391308693
10,79717649.0135585
704,766168.196131842
2,1, 7,21, 0, 5,20.00,30.00,SummerDesignDay
8,22.098501081595648
10,79730506.77688104
704,766168.196131842
2,1, 7,21, 0, 5,30.00,40.00,SummerDesignDay
8,22.08890192228894
10,79742638.86194809
704,766168.196131842
2,1, 7,21, 0, 5,40.00,50.00,SummerDesignDay
8,22.07929455666112
10,79754016.17693809
704,766168.196131842
2,1, 7,21, 0, 5,50.00,60.00,SummerDesignDay
8,22.06968746468033
10,79764648.54461105
704,766168.196131842
2,1, 7,21, 0, 5, 0.00,60.00,SummerDesignDay
938,26.70000299703842
978,26.700003510073328
1018,26.70000367329028
1058,27.31082727816244
1098,27.29336962395193
1138,26.699646293510829
1178,26.138182092503077
1218,26.699648226814735
1258,26.157912463902638
1298,26.699478937705327
1338,26.699462078563646
1378,26.69947968883402
1418,26.699467931291296
1458,26.699401217383124
1498,26.699381932596866
1538,26.699402338405624
1578,26.67152975865754
1618,26.99269013023522
2,1, 7,21, 0, 6, 0.00,10.00,SummerDesignDay
8,22.07929455666112
10,89435689.27908048
704,766168.196131842
2,1, 7,21, 0, 6,10.00,20.00,SummerDesignDay
8,22.08890192228894
10,83090194.41318533
704,766168.196131842
2,1, 7,21, 0, 6,20.00,30.00,SummerDesignDay
8,22.098501081595648
10,83621121.4791793
704,766168.196131842
2,1, 7,21, 0, 6,30.00,40.00,SummerDesignDay
8,22.108096391308693
10,79654897.91549398
704,766168.196131842
2,1, 7,21, 0, 6,40.00,50.00,SummerDesignDay
8,22.117693369939994
10,78806519.54881284
704,766168.196131842
2,1, 7,21, 0, 6,50.00,60.00,SummerDesignDay
8,22.127282061051376
10,76996570.512892
704,766168.196131842
2,1, 7,21, 0, 6, 0.00,60.00,SummerDesignDay
938,25.720177271089459
978,25.7212446099205
1018,25.719643673053797
1058,27.312617082231698
1098,27.286294397536396
1138,25.69055037848152
1178,25.680505810271798
1218,25.708749518874006
1258,25.68110923799046
1298,25.69944643595825
1338,25.686274620836284
1378,25.709494456984886
1418,25.68762100189731
1458,25.693376413182326
1498,25.685168755285856
1538,25.697492789706727
1578,25.68592843499246
1618,26.906399753785207
2,1, 7,21, 0, 7, 0.00,10.00,SummerDesignDay
8,22.16081788128382
10,88861444.42321031
704,766168.196131842
2,1, 7,21, 0, 7,10.00,20.00,SummerDesignDay
8,22.194314060674317
10,79761884.93278696
704,766168.196131842
2,1, 7,21, 0, 7,20.00,30.00,SummerDesignDay
8,22.227762416136
10,82169310.3361904
704,766168.196131842
2,1, 7,21, 0, 7,30.00,40.00,SummerDesignDay
8,22.261166449857777
10,81649768.2847965
704,766168.196131842
2,1, 7,21, 0, 7,40.00,50.00,SummerDesignDay
8,22.2945317589312
10,81745968.82169451
704,766168.196131842
2,1, 7,21, 0, 7,50.00,60.00,SummerDesignDay
8,22.32784836437558
10,82014796.25303652
704,766168.196131842
2,1, 7,21, 0, 7, 0.00,60.00,SummerDesignDay
938,25.017814813050838
978,25.01888212393813
1018,25.01605316886695
1058,27.287882321013485
1098,27.256523557811673
1138,25.002339589042337
1178,25.002650147946139
1218,25.006127860383818
1258,25.000872031194349
1298,25.0026629442369
1338,25.003045911493474
1378,25.00597572687011
1418,25.002741771579136
1458,25.002570706978714
1498,25.002925489375614
1538,25.002672952942306
1578,25.002643733440097
1618,26.805555905353477
2,1, 7,21, 0, 8, 0.00,10.00,SummerDesignDay
8,22.408583080392626
10,97184974.78932418
704,766168.196131842
2,1, 7,21, 0, 8,10.00,20.00,SummerDesignDay
8,22.48906704679055
10,97634916.63753672
704,766168.196131842
2,1, 7,21, 0, 8,20.00,30.00,SummerDesignDay
8,22.569293147585947
10,96915046.69345226
704,766168.196131842
2,1, 7,21, 0, 8,30.00,40.00,SummerDesignDay
8,22.649266945139865
10,95792292.89388635
704,766168.196131842
2,1, 7,21, 0, 8,40.00,50.00,SummerDesignDay
8,22.72898934285821
10,95554161.52783025
704,766168.196131842
2,1, 7,21, 0, 8,50.00,60.00,SummerDesignDay
8,22.80846232135329
10,95595162.84720148
704,766168.196131842
2,1, 7,21, 0, 8, 0.00,60.00,SummerDesignDay
938,24.18174031340524
978,24.185733732901839
1018,24.120101302055916
1058,27.249774628604766
1098,27.231301111040478
1138,24.031514989629846
1178,24.034272415030743
1218,24.084912899262208
1258,24.012833764814674
1298,24.033245470879124
1338,24.036661383198209
1378,24.088971495225264
1418,24.01454500608661
1458,24.025518355951477
1498,24.034411666353774
1538,24.042064393406937
1578,24.014401027072709
1618,26.949663831643293
2,1, 7,21, 0, 9, 0.00,10.00,SummerDesignDay
8,22.89699452446473
10,95646061.86449248
704,766168.196131842
2,1, 7,21, 0, 9,10.00,20.00,SummerDesignDay
8,22.985217781404136
10,95880806.35911127
704,766168.196131842
2,1, 7,21, 0, 9,20.00,30.00,SummerDesignDay
8,23.073130643143519
10,96205564.10441469
704,766168.196131842
2,1, 7,21, 0, 9,30.00,40.00,SummerDesignDay
8,23.160743471259779
10,96594231.90082275
704,766168.196131842
2,1, 7,21, 0, 9,40.00,50.00,SummerDesignDay
8,23.248048421233255
10,97019532.82606034
704,766168.196131842
2,1, 7,21, 0, 9,50.00,60.00,SummerDesignDay
8,23.33505738606609
10,97460300.17774622
704,766168.196131842
2,1, 7,21, 0, 9, 0.00,60.00,SummerDesignDay
938,23.999377252700396
978,23.999344863592257
1018,23.9993302312994
1058,27.222143017867894
1098,27.20933344712053
1138,23.99926544865988
1178,23.999366132392369
1218,23.99930781879023
1258,23.99927213964538
1298,23.999274110379557
1338,24.001154744641075
1378,23.999304773088438
1418,23.999279370283394
1458,23.99924517382364
1498,23.999585061580509
1538,23.999278218382995
1578,23.99924981271975
1618,27.479577399511915
2,1, 7,21, 0,10, 0.00,10.00,SummerDesignDay
8,23.41265100341451
10,97875565.0981916
704,766168.196131842
2,1, 7,21, 0,10,10.00,20.00,SummerDesignDay
8,23.490006602427905
10,98350856.125124
704,766168.196131842
2,1, 7,21, 0,10,20.00,30.00,SummerDesignDay
8,23.567129080603008
10,98847774.98765421
704,766168.196131842
2,1, 7,21, 0,10,30.00,40.00,SummerDesignDay
8,23.64401189423285
10,99342892.17233858
704,766168.196131842
2,1, 7,21, 0,10,40.00,50.00,SummerDesignDay
8,23.720659712070007
10,99872043.41999398
704,766168.196131842
2,1, 7,21, 0,10,50.00,60.00,SummerDesignDay
8,23.797074644998138
10,100354034.9214373
704,766168.196131842
2,1, 7,21, 0,10, 0.00,60.00,SummerDesignDay
938,23.999345393342386
978,23.999350962591625
1018,23.99934333440646
1058,27.24413205194941
1098,27.226965208020969
1138,23.999290929629635
1178,23.999382567604206
1218,23.999313034141016
1258,23.99929983977511
1298,23.999282780307426
1338,24.003970532480705
1378,23.999298666855215
1418,23.999289834238195
1458,23.99925653491792
1498,24.006002150328567
1538,23.99927259003491
1578,23.999262626745577
1618,28.298101661427329
2,1, 7,21, 0,11, 0.00,10.00,SummerDesignDay
8,23.864307802665026
10,100762517.25965606
704,766168.196131842
2,1, 7,21, 0,11,10.00,20.00,SummerDesignDay
8,23.93136184762686
10,101151433.69653249
704,766168.196131842
2,1, 7,21, 0,11,20.00,30.00,SummerDesignDay
8,23.998236689043716
10,101522682.7904455
704,766168.196131842
2,1, 7,21, 0,11,30.00,40.00,SummerDesignDay
8,24.064933161106909
10,101871363.28599647
704,766168.196131842
2,1, 7,21, 0,11,40.00,50.00,SummerDesignDay
8,24.13145676358548
10,102197076.82207
704,766168.196131842
2,1, 7,21, 0,11,50.00,60.00,SummerDesignDay
8,24.197781774698226
10,102499602.53456569
704,766168.196131842
2,1, 7,21, 0,11, 0.00,60.00,SummerDesignDay
938,23.9993473769953
978,23.999351717138027
1018,23.999346574745279
1058,27.257654574849359
1098,27.23851989090271
1138,23.999295464956324
1178,23.999403845582028
1218,23.99931690859862
1258,23.99931249876393
1298,23.99928633612559
1338,23.99937710424598
1378,23.999302889606104
1418,23.999299503907144
1458,23.999264887056666
1498,23.999362017218293
1538,23.999280355413949
1578,23.999276159913877
1618,29.12572647358346
2,1, 7,21, 0,12, 0.00,10.00,SummerDesignDay
8,24.241912042460787
10,102633469.92350833
704,766168.196131842
2,1, 7,21, 0,12,10.00,20.00,SummerDesignDay
8,24.285965402847194
10,102741591.77528875
704,766168.196131842
2,1, 7,21, 0,12,20.00,30.00,SummerDesignDay
8,24.3299406594327
10,102834031.67248377
704,766168.196131842
2,1, 7,21, 0,12,30.00,40.00,SummerDesignDay
8,24.37383792896479
10,102914838.10817056
704,766168.196131842
2,1, 7,21, 0,12,40.00,50.00,SummerDesignDay
8,24.417658514747676
10,102994156.46624793
704,766168.196131842
2,1, 7,21, 0,12,50.00,60.00,SummerDesignDay
8,24.461402047458465
10,103084855.51304245
704,766168.196131842
2,1, 7,21, 0,12, 0.00,60.00,SummerDesignDay
938,23.99936544399689
978,23.999366082328167
1018,23.999365871985096
1058,27.2601269270609
1098,27.24095794997091
1138,23.999329991183868
1178,23.999434109777284
1218,23.999341263972707
1258,23.999339391138716
1298,23.99931762967581
1338,23.999404831418805
1378,23.9993263183889
1418,23.999324453824657
1458,23.99930098063015
1498,23.999384517459505
1538,23.999308106123139
1578,23.999305481203974
1618,29.82699443692557
2,1, 7,21, 0,13, 0.00,10.00,SummerDesignDay
8,24.4963482406198
10,103162088.3570893
704,766168.196131842
2,1, 7,21, 0,13,10.00,20.00,SummerDesignDay
8,24.531240281686157
10,103298645.18726799
704,766168.196131842
2,1, 7,21, 0,13,20.00,30.00,SummerDesignDay
8,24.566071841916153
10,103450973.45640663
704,766168.196131842
2,1, 7,21, 0,13,30.00,40.00,SummerDesignDay
8,24.60086617144924
10,103734192.72006496
704,766168.196131842
2,1, 7,21, 0,13,40.00,50.00,SummerDesignDay
8,24.63561727012247
10,104128837.02942828
704,766168.196131842
2,1, 7,21, 0,13,50.00,60.00,SummerDesignDay
8,24.67031466724826
10,104301327.70375794
704,766168.196131842
2,1, 7,21, 0,13, 0.00,60.00,SummerDesignDay
938,23.999363463839729
978,23.99936623372489
1018,23.9993699789748
1058,27.253081121871163
1098,27.236762628408547
1138,23.999885417025383
1178,23.999405541095795
1218,23.999344587569266
1258,23.999331285474
1298,24.000327568219487
1338,23.99937702942724
1378,23.999327738736626
1418,23.99931597026764
1458,23.99931602010754
1498,23.99935790602203
1538,23.999312708493368
1578,23.999301297073843
1618,30.32402595343714
2,1, 7,21, 0,14, 0.00,10.00,SummerDesignDay
8,24.691975315719227
10,104366157.93345268
704,766168.196131842
2,1, 7,21, 0,14,10.00,20.00,SummerDesignDay
8,24.713616857955605
10,104419546.76016794
704,766168.196131842
2,1, 7,21, 0,14,20.00,30.00,SummerDesignDay
8,24.735239492462396
10,104453493.10650611
704,766168.196131842
2,1, 7,21, 0,14,30.00,40.00,SummerDesignDay
8,24.75684358990104
10,104459057.02117069
704,766168.196131842
2,1, 7,21, 0,14,40.00,50.00,SummerDesignDay
8,24.778428575760857
10,104788222.35674042
704,766168.196131842
2,1, 7,21, 0,14,50.00,60.00,SummerDesignDay
8,24.79999519699483
10,105057221.30272499
704,766168.196131842
2,1, 7,21, 0,14, 0.00,60.00,SummerDesignDay
938,23.999382925349435
978,23.999376902340896
1018,24.01121613083126
1058,27.244975803602985
1098,27.234294578993244
1138,24.008989691378987
1178,23.999392522028093
1218,24.01058273566576
1258,23.99931399647093
1298,24.011769344585959
1338,23.999372859783127
1378,24.01275320748357
1418,23.999308962344118
1458,24.0195496107619
1498,23.999360822059214
1538,24.011217143696304
1578,23.999305178829617
1618,30.61972979900708
2,1, 7,21, 0,15, 0.00,10.00,SummerDesignDay
8,24.79999519699483
10,105024809.20857191
704,766168.196131842
2,1, 7,21, 0,15,10.00,20.00,SummerDesignDay
8,24.79999519699483
10,104998625.86870712
704,766168.196131842
2,1, 7,21, 0,15,20.00,30.00,SummerDesignDay
8,24.79999519699483
10,104974296.84319146
704,766168.196131842
2,1, 7,21, 0,15,30.00,40.00,SummerDesignDay
8,24.79999519699483
10,104951977.41763194
704,766168.196131842
2,1, 7,21, 0,15,40.00,50.00,SummerDesignDay
8,24.79999519699483
10,104932015.77225615
704,766168.196131842
2,1, 7,21, 0,15,50.00,60.00,SummerDesignDay
8,24.79999519699483
10,104914155.98854484
704,766168.196131842
2,1, 7,21, 0,15, 0.00,60.00,SummerDesignDay
938,24.053902629728684
978,24.037426152335255
1018,24.169022118230698
1058,27.24760273190304
1098,27.24453753264144
1138,24.05949350748251
1178,24.04740921796129
1218,24.155104808614096
1258,24.06913195210829
1298,24.075559188884154
1338,24.053370772117917
1378,24.171722832946135
1418,24.07422648548074
1458,24.12348916315717
1498,24.058315605522308
1538,24.186092339954425
1578,24.078613895857573
1618,30.746777853688788
2,1, 7,21, 0,16, 0.00,10.00,SummerDesignDay
8,24.774109911402314
10,104901468.09081681
704,766168.196131842
2,1, 7,21, 0,16,10.00,20.00,SummerDesignDay
8,24.748193058907299
10,104892057.23101026
704,766168.196131842
2,1, 7,21, 0,16,20.00,30.00,SummerDesignDay
8,24.72226641808931
10,104885387.668267
704,766168.196131842
2,1, 7,21, 0,16,30.00,40.00,SummerDesignDay
8,24.69629573485237
10,104881061.02583309
704,766168.196131842
2,1, 7,21, 0,16,40.00,50.00,SummerDesignDay
8,24.67031466724826
10,104878517.78493689
704,766168.196131842
2,1, 7,21, 0,16,50.00,60.00,SummerDesignDay
8,24.64429386676247
10,104877627.3993922
704,766168.196131842
2,1, 7,21, 0,16, 0.00,60.00,SummerDesignDay
938,24.104089350321645
978,24.071168498860179
1018,24.29945503452853
1058,27.261466573059768
1098,27.26750342170443
1138,24.08595766203165
1178,24.088232141457909
1218,24.223331845305507
1258,24.203379420079487
1298,24.097470050866126
1338,24.100224335224
1378,24.25069535362248
1418,24.225600246371618
1458,24.118976846855273
1498,24.11050613701887
1538,24.287413339710484
1578,24.25499189675749
1618,30.709075423018829
2,1, 7,21, 0,17, 0.00,10.00,SummerDesignDay
8,24.609555269533723
10,104879479.83284588
704,766168.196131842
2,1, 7,21, 0,17,10.00,20.00,SummerDesignDay
8,24.574785653419665
10,104883387.12099594
704,766168.196131842
2,1, 7,21, 0,17,20.00,30.00,SummerDesignDay
8,24.53995372449976
10,104879488.21510811
704,766168.196131842
2,1, 7,21, 0,17,30.00,40.00,SummerDesignDay
8,24.505073792047609
10,104757200.22290045
704,766168.196131842
2,1, 7,21, 0,17,40.00,50.00,SummerDesignDay
8,24.470140173703635
10,104637366.05350551
704,766168.196131842
2,1, 7,21, 0,17,50.00,60.00,SummerDesignDay
8,24.435179734761314
10,104519939.77209397
704,766168.196131842
2,1, 7,21, 0,17, 0.00,60.00,SummerDesignDay
938,24.075003171901753
978,24.050775590717647
1018,24.258524697038497
1058,27.2662258322851
1098,27.281824839160323
1138,24.058770828734795
1178,24.060569061067679
1218,24.193258633729596
1258,24.3645893457019
1298,24.067234437849505
1338,24.06942892195166
1378,24.21754864438583
1418,24.38583204945603
1458,24.074809162783777
1498,24.076858646029455
1538,24.24279254788372
1578,24.41351322158836
1618,30.44682265245542
2,1, 7,21, 0,18, 0.00,10.00,SummerDesignDay
8,24.391385151553675
10,104374236.14732006
704,766168.196131842
2,1, 7,21, 0,18,10.00,20.00,SummerDesignDay
8,24.347518457299747
10,104231905.66382022
704,766168.196131842
2,1, 7,21, 0,18,20.00,30.00,SummerDesignDay
8,24.30357424691312
10,104125326.80377445
704,766168.196131842
2,1, 7,21, 0,18,30.00,40.00,SummerDesignDay
8,24.259552332546677
10,103872543.98384328
704,766168.196131842
2,1, 7,21, 0,18,40.00,50.00,SummerDesignDay
8,24.215452456223976
10,103232680.47341262
704,766168.196131842
2,1, 7,21, 0,18,50.00,60.00,SummerDesignDay
8,24.171275219179657
10,102227279.6405598
704,766168.196131842
2,1, 7,21, 0,18, 0.00,60.00,SummerDesignDay
938,24.015650337709489
978,24.010086971294347
1018,24.088016658467436
1058,27.249081936357315
1098,27.273062874873366
1138,24.011297629918887
1178,24.011663782468277
1218,24.128909966843023
1258,24.09040699361094
1298,24.01322583260759
1338,24.013677232555876
1378,24.136995295272638
1418,24.10156287412246
1458,24.014860206967339
1498,24.01529148992255
1538,24.1167383595301
1578,24.104500813195178
1618,29.942746377007948
2,1, 7,21, 0,19, 0.00,10.00,SummerDesignDay
8,24.104862614075448
10,101719840.17199506
704,766168.196131842
2,1, 7,21, 0,19,10.00,20.00,SummerDesignDay
8,24.038272536484607
10,101646852.63176793
704,766168.196131842
2,1, 7,21, 0,19,20.00,30.00,SummerDesignDay
8,23.971500049970403
10,100815044.50533344
704,766168.196131842
2,1, 7,21, 0,19,30.00,40.00,SummerDesignDay
8,23.90455374910954
10,97964326.7651917
704,766168.196131842
2,1, 7,21, 0,19,40.00,50.00,SummerDesignDay
8,23.837428259103495
10,97344961.60481422
704,766168.196131842
2,1, 7,21, 0,19,50.00,60.00,SummerDesignDay
8,23.770122566836709
10,97754922.63774075
704,766168.196131842
2,1, 7,21, 0,19, 0.00,60.00,SummerDesignDay
938,23.99936219626782
978,23.99934796739284
1018,23.999421785914618
1058,27.201347706716587
1098,27.229513854410219
1138,23.99935951315074
1178,23.99936386638582
1218,24.000087535037925
1258,23.999501390475208
1298,23.999344110489376
1338,23.99934729060419
1378,24.000132655059166
1418,23.999492821385787
1458,23.999342256919495
1498,23.999344082518168
1538,23.999604796405376
1578,23.999488312579137
1618,29.21342269821044
2,1, 7,21, 0,20, 0.00,10.00,SummerDesignDay
8,23.720659712070007
10,98325220.56628636
704,766168.196131842
2,1, 7,21, 0,20,10.00,20.00,SummerDesignDay
8,23.671090474146888
10,102210804.10078521
704,766168.196131842
2,1, 7,21, 0,20,20.00,30.00,SummerDesignDay
8,23.621423087029166
10,101634815.96039646
704,766168.196131842
2,1, 7,21, 0,20,30.00,40.00,SummerDesignDay
8,23.57165702277583
10,101121801.0868469
704,766168.196131842
2,1, 7,21, 0,20,40.00,50.00,SummerDesignDay
8,23.52179311411177
10,100634304.06329952
704,766168.196131842
2,1, 7,21, 0,20,50.00,60.00,SummerDesignDay
8,23.47182921589996
10,100163478.18892688
704,766168.196131842
2,1, 7,21, 0,20, 0.00,60.00,SummerDesignDay
938,23.99944445420537
978,23.999432684365336
1018,23.99945547782581
1058,27.125807221677435
1098,27.154173852446119
1138,23.999422595916668
1178,23.9994300023952
1218,23.999451988306587
1258,23.999512962940384
1298,23.999404756702835
1338,23.99941076156949
1378,23.999427846856709
1418,23.999480391026184
1458,23.999400104623378
1498,23.99940419895204
1538,23.999420121786885
1578,23.999466478280657
1618,28.320566866911958
2,1, 7,21, 0,21, 0.00,10.00,SummerDesignDay
8,23.430874963131669
10,99757199.51661906
704,766168.196131842
2,1, 7,21, 0,21,10.00,20.00,SummerDesignDay
8,23.38985327153428
10,99368995.31703933
704,766168.196131842
2,1, 7,21, 0,21,20.00,30.00,SummerDesignDay
8,23.34876959875807
10,98995375.07740762
704,766168.196131842
2,1, 7,21, 0,21,30.00,40.00,SummerDesignDay
8,23.3076141406866
10,98637812.22209904
704,766168.196131842
2,1, 7,21, 0,21,40.00,50.00,SummerDesignDay
8,23.266392150200095
10,98290777.49544452
704,766168.196131842
2,1, 7,21, 0,21,50.00,60.00,SummerDesignDay
8,23.225101800123516
10,97955595.7747119
704,766168.196131842
2,1, 7,21, 0,21, 0.00,60.00,SummerDesignDay
938,23.99939700863744
978,23.999397340209826
1018,23.99941364263913
1058,27.03256816381473
1098,27.059581666373576
1138,23.999380634411524
1178,23.999385484347603
1218,23.999386713624007
1258,23.99941712617658
1298,23.999361389671493
1338,23.9993646700278
1378,23.999365589031727
1418,23.999390133439606
1458,23.999353558103825
1498,23.999355333121306
1538,23.9993571980347
1578,23.999377814828166
1618,27.513318605158209
2,1, 7,21, 0,22, 0.00,10.00,SummerDesignDay
8,23.183748128549767
10,97631473.2763486
704,766168.196131842
2,1, 7,21, 0,22,10.00,20.00,SummerDesignDay
8,23.14232268871898
10,97317776.72580548
704,766168.196131842
2,1, 7,21, 0,22,20.00,30.00,SummerDesignDay
8,23.10082967213209
10,97014788.93651642
704,766168.196131842
2,1, 7,21, 0,22,30.00,40.00,SummerDesignDay
8,23.059271895686434
10,96721760.25058912
704,766168.196131842
2,1, 7,21, 0,22,40.00,50.00,SummerDesignDay
8,23.01764200690935
10,96436330.95719402
704,766168.196131842
2,1, 7,21, 0,22,50.00,60.00,SummerDesignDay
8,22.975943224748894
10,96157905.32873024
704,766168.196131842
2,1, 7,21, 0,22, 0.00,60.00,SummerDesignDay
938,23.99938413400532
978,23.999383661921724
1018,23.99939595547178
1058,26.94347934156095
1098,26.966112702010077
1138,23.999363950606754
1178,23.99936862356371
1218,23.99936629863116
1258,23.999389925316338
1298,23.99934676007712
1338,23.999349821998356
1378,23.999348561592087
1418,23.99936675838406
1458,23.99933612092398
1498,23.999337830443055
1538,23.999337848868266
1578,23.999353096348604
1618,26.94350802228348
2,1, 7,21, 0,23, 0.00,10.00,SummerDesignDay
8,22.943465253097018
10,79247863.70949658
704,766168.196131842
2,1, 7,21, 0,23,10.00,20.00,SummerDesignDay
8,22.91094626295795
10,78817914.79771294
704,766168.196131842
2,1, 7,21, 0,23,20.00,30.00,SummerDesignDay
8,22.878381130741823
10,79165952.10168475
704,766168.196131842
2,1, 7,21, 0,23,30.00,40.00,SummerDesignDay
8,22.845777936798176
10,79929515.42262507
704,766168.196131842
2,1, 7,21, 0,23,40.00,50.00,SummerDesignDay
8,22.813132938530747
10,80474270.33034945
704,766168.196131842
2,1, 7,21, 0,23,50.00,60.00,SummerDesignDay
8,22.780441618581024
10,80454465.73172616
704,766168.196131842
2,1, 7,21, 0,23, 0.00,60.00,SummerDesignDay
938,26.499980258961388
978,26.14153885141089
1018,26.160193737240406
1058,26.959863170958326
1098,26.96398546147215
1138,25.774675696945328
1178,25.412177476903975
1218,25.84481605476701
1258,25.545013734008607
1298,26.110530417342575
1338,25.814013244344836
1378,26.143934578206019
1418,25.953052718920785
1458,26.101868081326527
1498,25.8470641376417
1538,26.13387043843636
1578,25.931384385095556
1618,26.72406646720462
2,1, 7,21, 0,24, 0.00,10.00,SummerDesignDay
8,22.7477123587852
10,80774892.49193406
704,766168.196131842
2,1, 7,21, 0,24,10.00,20.00,SummerDesignDay
8,22.7149412932349
10,80952679.70899847
704,766168.196131842
2,1, 7,21, 0,24,20.00,30.00,SummerDesignDay
8,22.682122705825344
10,81051587.60089351
704,766168.196131842
2,1, 7,21, 0,24,30.00,40.00,SummerDesignDay
8,22.649266945139865
10,81115215.40698627
704,766168.196131842
2,1, 7,21, 0,24,40.00,50.00,SummerDesignDay
8,22.616367640006226
10,81160545.69302792
704,766168.196131842