Program Version,EnergyPlus, Version 9.1.0-08d2e308bb, YMD=2019.04.09 23:12
1,5,Environment Title[],Latitude[deg],Longitude[deg],Time Zone[],Elevation[m]
2,8,Day of Simulation[],Month[],Day of Month[],DST Indicator[1=yes 0=no],Hour[],StartMinute[],EndMinute[],DayType
3,5,Cumulative Day of Simulation[],Month[],Day of Month[],DST Indicator[1=yes 0=no],DayType  ! When Daily Report Variables Requested
4,2,Cumulative Days of Simulation[],Month[]  ! When Monthly Report Variables Requested
5,1,Cumulative Days of Simulation[] ! When Run Period Report Variables Requested
6,1,Calendar Year of Simulation[] ! When Annual Report Variables Requested
7,9,Environment,Site Outdoor Air Drybulb Temperature [C] !Monthly [Value,Min,Day,Hour,Minute,Max,Day,Hour,Minute]
8,1,Environment,Site Outdoor Air Wetbulb Temperature [C] !TimeStep
354,1,TZ_DINING,Zone Air Temperature [C] !Hourly
355,7,TZ_DINING,Zone Air Relative Humidity [%] !Daily [Value,Min,Hour,Minute,Max,Hour,Minute]
394,1,TZ_KITCHEN,Zone Air Temperature [C] !Hourly
395,7,TZ_KITCHEN,Zone Air Relative Humidity [%] !Daily [Value,Min,Hour,Minute,Max,Hour,Minute]
434,1,TZ_LOBBY,Zone Air Temperature [C] !Hourly
435,7,TZ_LOBBY,Zone Air Relative Humidity [%] !Daily [Value,Min,Hour,Minute,Max,Hour,Minute]
474,1,TZ_PLENUM,Zone Air Temperature [C] !Hourly
475,7,TZ_PLENUM,Zone Air Relative Humidity [%] !Daily [Value,Min,Hour,Minute,Max,Hour,Minute]
10,1,Electricity:Facility [J] !TimeStep
196,1,Gas:Facility [J] !TimeStep
End of Data Dictionary
1,BALTIMORE BLT WASHNGTN INTL ANN CLG .4% CONDNS DB=>MWB,  39.17, -76.68,  -5.00,  45.00
2,1, 7,21, 0, 1, 0.00,10.00,SummerDesignDay
8,21.50198616188657
10,7619631.314145086
196,5250661.293205531
2,1, 7,21, 0, 1,10.00,20.00,SummerDesignDay
8,21.47167154873654
10,7610675.062579977
196,5250661.293205531
2,1, 7,21, 0, 1,20.00,30.00,SummerDesignDay
8,21.441325470917538
10,7601866.689821754
196,5250661.293205531
2,1, 7,21, 0, 1,30.00,40.00,SummerDesignDay
8,21.410939070075924
10,7593140.79816664
196,5250661.293205531
2,1, 7,21, 0, 1,40.00,50.00,SummerDesignDay
8,21.38051689253179
10,7584484.710199395
196,5250661.293205531
2,1, 7,21, 0, 1,50.00,60.00,SummerDesignDay
8,21.350059392124949
10,7575912.578161308
196,5250661.293205531
2,1, 7,21, 0, 1, 0.00,60.00,SummerDesignDay
354,23.99423052856417
394,24.31586504915342
434,24.427433143681616
474,29.704402116848845
2,1, 7,21, 0, 2, 0.00,10.00,SummerDesignDay
8,21.32973789607435
10,5606374.239855829
196,5250661.293205531
2,1, 7,21, 0, 2,10.00,20.00,SummerDesignDay
8,21.309396778367149
10,5210592.915077324
196,5250661.293205531
2,1, 7,21, 0, 2,20.00,30.00,SummerDesignDay
8,21.289039451124848
10,5256247.511207758
196,5250661.293205531
2,1, 7,21, 0, 2,30.00,40.00,SummerDesignDay
8,21.268665212979504
10,5304062.09543152
196,5250661.293205531
2,1, 7,21, 0, 2,40.00,50.00,SummerDesignDay
8,21.248275693664764
10,5520305.054598543
196,5250661.293205531
2,1, 7,21, 0, 2,50.00,60.00,SummerDesignDay
8,21.227869883553937
10,5578105.405312798
196,5250661.293205531
2,1, 7,21, 0, 2, 0.00,60.00,SummerDesignDay
354,29.15166147031792
394,29.8995384156928
434,23.947127985570459
474,29.595725327282549
2,1, 7,21, 0, 3, 0.00,10.00,SummerDesignDay
8,21.212559371048937
10,5596860.503663668
196,5250661.293205531
2,1, 7,21, 0, 3,10.00,20.00,SummerDesignDay
8,21.197235391181253
10,5615672.8845231099
196,5250661.293205531
2,1, 7,21, 0, 3,20.00,30.00,SummerDesignDay
8,21.181902253535275
10,5632433.331122075
196,5250661.293205531
2,1, 7,21, 0, 3,30.00,40.00,SummerDesignDay
8,21.166559962679
10,5643289.586175709
196,5250661.293205531
2,1, 7,21, 0, 3,40.00,50.00,SummerDesignDay
8,21.151208299297428
10,5649465.054568663
196,5250661.293205531
2,1, 7,21, 0, 3,50.00,60.00,SummerDesignDay
8,21.135847517860694
10,5652122.313212147
196,5250661.293205531
2,1, 7,21, 0, 3, 0.00,60.00,SummerDesignDay
354,29.98852905878873
394,29.996988228686417
434,23.61544227471003
474,29.455074860843494
2,1, 7,21, 0, 4, 0.00,10.00,SummerDesignDay
8,21.120478155175044
10,5652173.618220453
196,5250661.293205531
2,1, 7,21, 0, 4,10.00,20.00,SummerDesignDay
8,21.10509929330753
10,5650308.954524114
196,5250661.293205531
2,1, 7,21, 0, 4,20.00,30.00,SummerDesignDay
8,21.089715633895218
10,5646942.2233127099
196,5250661.293205531
2,1, 7,21, 0, 4,30.00,40.00,SummerDesignDay
8,21.074318405942614
10,5642415.072952492
196,5250661.293205531
2,1, 7,21, 0, 4,40.00,50.00,SummerDesignDay
8,21.058911981621063
10,5637019.516346635
196,5250661.293205531
2,1, 7,21, 0, 4,50.00,60.00,SummerDesignDay
8,21.043496389261017
10,5630894.152336183
196,5250661.293205531
2,1, 7,21, 0, 4, 0.00,60.00,SummerDesignDay
354,29.986570689130006
394,29.9969614041012
434,23.49004270243623
474,29.33593447181167
2,1, 7,21, 0, 5, 0.00,10.00,SummerDesignDay
8,21.033214386185585
10,5626680.989143133
196,5250661.293205531
2,1, 7,21, 0, 5,10.00,20.00,SummerDesignDay
8,21.022927649851768
10,5622340.004248
196,5250661.293205531
2,1, 7,21, 0, 5,20.00,30.00,SummerDesignDay
8,21.01263775727226
10,5617670.443308137
196,5250661.293205531
2,1, 7,21, 0, 5,30.00,40.00,SummerDesignDay
8,21.002342721362799
10,5612687.830434887
196,5250661.293205531
2,1, 7,21, 0, 5,40.00,50.00,SummerDesignDay
8,20.992044544612047
10,5607560.289012205
196,5250661.293205531
2,1, 7,21, 0, 5,50.00,60.00,SummerDesignDay
8,20.981751838421354
10,5602201.57936016
196,5250661.293205531
2,1, 7,21, 0, 5, 0.00,60.00,SummerDesignDay
354,29.986475399925728
394,29.99695149332275
434,23.375091679415254
474,29.2206246866042
2,1, 7,21, 0, 6, 0.00,10.00,SummerDesignDay
8,20.992044544612047
10,7604751.739021196
196,5250661.293205531
2,1, 7,21, 0, 6,10.00,20.00,SummerDesignDay
8,21.002342721362799
10,7627700.864057917
196,5250661.293205531
2,1, 7,21, 0, 6,20.00,30.00,SummerDesignDay
8,21.01263775727226
10,7606035.320472501
196,5250661.293205531
2,1, 7,21, 0, 6,30.00,40.00,SummerDesignDay
8,21.022927649851768
10,7565739.045937678
196,5250661.293205531
2,1, 7,21, 0, 6,40.00,50.00,SummerDesignDay
8,21.033214386185585
10,7508728.509093685
196,5250661.293205531
2,1, 7,21, 0, 6,50.00,60.00,SummerDesignDay
8,21.043496389261017
10,7524082.542141814
196,5250661.293205531
2,1, 7,21, 0, 6, 0.00,60.00,SummerDesignDay
354,24.313113149196075
394,24.528043041984039
434,23.77893190151845
474,29.112538050241814
2,1, 7,21, 0, 7, 0.00,10.00,SummerDesignDay
8,21.079451788047185
10,7568479.625576934
196,5250661.293205531
2,1, 7,21, 0, 7,10.00,20.00,SummerDesignDay
8,21.11535276290309
10,7442458.309264133
196,5250661.293205531
2,1, 7,21, 0, 7,20.00,30.00,SummerDesignDay
8,21.151208299297428
10,7472396.991358266
196,5250661.293205531
2,1, 7,21, 0, 7,30.00,40.00,SummerDesignDay
8,21.187014248115138
10,7488247.196224249
196,5250661.293205531
2,1, 7,21, 0, 7,40.00,50.00,SummerDesignDay
8,21.222766060574125
10,7514179.641939947
196,5250661.293205531
2,1, 7,21, 0, 7,50.00,60.00,SummerDesignDay
8,21.258472966288083
10,7545230.478878955
196,5250661.293205531
2,1, 7,21, 0, 7, 0.00,60.00,SummerDesignDay
354,23.99335438829007
394,24.028577053438246
434,24.0050095121514
474,28.972894839480543
2,1, 7,21, 0, 8, 0.00,10.00,SummerDesignDay
8,21.34497898803138
10,7599098.321611618
196,5250661.293205531
2,1, 7,21, 0, 8,10.00,20.00,SummerDesignDay
8,21.431200361355829
10,7657028.58203584
196,5250661.293205531
2,1, 7,21, 0, 8,20.00,30.00,SummerDesignDay
8,21.517129726887963
10,7718363.389424469
196,5250661.293205531
2,1, 7,21, 0, 8,30.00,40.00,SummerDesignDay
8,21.60277230834171
10,7782426.61837234
196,5250661.293205531
2,1, 7,21, 0, 8,40.00,50.00,SummerDesignDay
8,21.688134918338656
10,7848713.593637929
196,5250661.293205531
2,1, 7,21, 0, 8,50.00,60.00,SummerDesignDay
8,21.77320950007863
10,7916730.5191610469
196,5250661.293205531
2,1, 7,21, 0, 8, 0.00,60.00,SummerDesignDay
354,23.99407869287957
394,24.000514972949778
434,23.99837609270044
474,28.83417261916341
2,1, 7,21, 0, 9, 0.00,10.00,SummerDesignDay
8,21.86796122369957
10,7993370.465646144
196,5250661.293205531
2,1, 7,21, 0, 9,10.00,20.00,SummerDesignDay
8,21.962362407880005
10,8068669.705749031
196,5250661.293205531
2,1, 7,21, 0, 9,20.00,30.00,SummerDesignDay
8,22.056416755421539
10,8145880.067438799
196,5250661.293205531
2,1, 7,21, 0, 9,30.00,40.00,SummerDesignDay
8,22.15013100841535
10,8220271.759836101
196,5250661.293205531
2,1, 7,21, 0, 9,40.00,50.00,SummerDesignDay
8,22.24349728549041
10,8274054.2792393979
196,5250661.293205531
2,1, 7,21, 0, 9,50.00,60.00,SummerDesignDay
8,22.336522911383676
10,8327349.271976447
196,5250661.293205531
2,1, 7,21, 0, 9, 0.00,60.00,SummerDesignDay
354,23.994431401816667
394,24.021396944109129
434,23.998860573410174
474,28.707396768142887
2,1, 7,21, 0,10, 0.00,10.00,SummerDesignDay
8,22.419468280136916
10,8376332.457377853
196,5250661.293205531
2,1, 7,21, 0,10,10.00,20.00,SummerDesignDay
8,22.50214889948908
10,8424730.694249498
196,5250661.293205531
2,1, 7,21, 0,10,20.00,30.00,SummerDesignDay
8,22.58455668947638
10,8472592.965068639
196,5250661.293205531
2,1, 7,21, 0,10,30.00,40.00,SummerDesignDay
8,22.666698582865125
10,8519532.692077285
196,5250661.293205531
2,1, 7,21, 0,10,40.00,50.00,SummerDesignDay
8,22.748574910976595
10,8565570.476328703
196,5250661.293205531
2,1, 7,21, 0,10,50.00,60.00,SummerDesignDay
8,22.830191151431639
10,8610153.973981902
196,5250661.293205531
2,1, 7,21, 0,10, 0.00,60.00,SummerDesignDay
354,23.994723449161787
394,24.264773451347453
434,23.99902491416427
474,28.61192276873493
2,1, 7,21, 0,11, 0.00,10.00,SummerDesignDay
8,22.90198409764867
10,8649146.48280468
196,5250661.293205531
2,1, 7,21, 0,11,10.00,20.00,SummerDesignDay
8,22.97357378599698
10,8685901.275249418
196,5250661.293205531
2,1, 7,21, 0,11,20.00,30.00,SummerDesignDay
8,23.044965128541617
10,8720606.385562867
196,5250661.293205531
2,1, 7,21, 0,11,30.00,40.00,SummerDesignDay
8,23.116150885901026
10,8753292.392376455
196,5250661.293205531
2,1, 7,21, 0,11,40.00,50.00,SummerDesignDay
8,23.1871367178006
10,8784299.177335142
196,5250661.293205531
2,1, 7,21, 0,11,50.00,60.00,SummerDesignDay
8,23.257927919160239
10,8814066.362648407
196,5250661.293205531
2,1, 7,21, 0,11, 0.00,60.00,SummerDesignDay
354,23.99495328803276
394,24.536596143131935
434,23.99910476649309
474,28.558132297296724
2,1, 7,21, 0,12, 0.00,10.00,SummerDesignDay
8,23.304998177620793
10,8829855.882200115
196,5250661.293205531
2,1, 7,21, 0,12,10.00,20.00,SummerDesignDay
8,23.35199348481115
10,8842645.757921372
196,5250661.293205531
2,1, 7,21, 0,12,20.00,30.00,SummerDesignDay
8,23.398906659058324
10,8855087.959873895
196,5250661.293205531
2,1, 7,21, 0,12,30.00,40.00,SummerDesignDay
8,23.445727308152468
10,8867373.825824663
196,5250661.293205531
2,1, 7,21, 0,12,40.00,50.00,SummerDesignDay
8,23.49246101774044
10,8880513.422829552
196,5250661.293205531
2,1, 7,21, 0,12,50.00,60.00,SummerDesignDay
8,23.53909499014905
10,8895622.083549926
196,5250661.293205531
2,1, 7,21, 0,12, 0.00,60.00,SummerDesignDay
354,23.99506264289241
394,24.710559888502357
434,23.999106457249096
474,28.55102117368141
2,1, 7,21, 0,13, 0.00,10.00,SummerDesignDay
8,23.576350831935924
10,8908785.569301678
196,5250661.293205531
2,1, 7,21, 0,13,10.00,20.00,SummerDesignDay
8,23.613555851209978
10,8929857.36680635
196,5250661.293205531
2,1, 7,21, 0,13,20.00,30.00,SummerDesignDay
8,23.65070087639078
10,8952077.002062519
196,5250661.293205531
2,1, 7,21, 0,13,30.00,40.00,SummerDesignDay
8,23.687791002237075
10,8979163.084648937
196,5250661.293205531
2,1, 7,21, 0,13,40.00,50.00,SummerDesignDay
8,23.724826639785765
10,8993998.15888768
196,5250661.293205531
2,1, 7,21, 0,13,50.00,60.00,SummerDesignDay
8,23.761794202574966
10,9008936.035655074
196,5250661.293205531
2,1, 7,21, 0,13, 0.00,60.00,SummerDesignDay
354,24.065348227960177
394,24.869651459480648
434,24.007489750681218
474,28.589343200601279
2,1, 7,21, 0,14, 0.00,10.00,SummerDesignDay
8,23.78487949280237
10,9018324.51485629
196,5250661.293205531
2,1, 7,21, 0,14,10.00,20.00,SummerDesignDay
8,23.807943895550446
10,9027753.297243728
196,5250661.293205531
2,1, 7,21, 0,14,20.00,30.00,SummerDesignDay
8,23.83099126471713
10,9037222.4395497
196,5250661.293205531
2,1, 7,21, 0,14,30.00,40.00,SummerDesignDay
8,23.85401257521526
10,9046731.998833228
196,5250661.293205531
2,1, 7,21, 0,14,40.00,50.00,SummerDesignDay
8,23.877013700204736
10,9056282.032482138
196,5250661.293205531
2,1, 7,21, 0,14,50.00,60.00,SummerDesignDay
8,23.899992893061709
10,9065872.598215193
196,5250661.293205531
2,1, 7,21, 0,14, 0.00,60.00,SummerDesignDay
354,24.498809922732066
394,25.28842355706979
434,24.206654220044248
474,28.66450792682873
2,1, 7,21, 0,15, 0.00,10.00,SummerDesignDay
8,23.899992893061709
10,9065872.598215193
196,5250661.293205531
2,1, 7,21, 0,15,10.00,20.00,SummerDesignDay
8,23.899992893061709
10,9065872.598215193
196,5250661.293205531
2,1, 7,21, 0,15,20.00,30.00,SummerDesignDay
8,23.899992893061709
10,9065872.598215193
196,5250661.293205531
2,1, 7,21, 0,15,30.00,40.00,SummerDesignDay
8,23.899992893061709
10,9065872.598215193
196,5250661.293205531
2,1, 7,21, 0,15,40.00,50.00,SummerDesignDay
8,23.899992893061709
10,9065872.598215193
196,5250661.293205531
2,1, 7,21, 0,15,50.00,60.00,SummerDesignDay
8,23.899992893061709
10,9065872.598215193
196,5250661.293205531
2,1, 7,21, 0,15, 0.00,60.00,SummerDesignDay
354,24.92298175535004
394,25.573314514715006
434,24.786850857758095
474,28.776292962728325
2,1, 7,21, 0,16, 0.00,10.00,SummerDesignDay
8,23.87241465443902
10,9054368.785037408
196,5250661.293205531
2,1, 7,21, 0,16,10.00,20.00,SummerDesignDay
8,23.844806755634204
10,9042923.321417079
196,5250661.293205531
2,1, 7,21, 0,16,20.00,30.00,SummerDesignDay
8,23.817163456338994
10,9031536.107787928
196,5250661.293205531
2,1, 7,21, 0,16,30.00,40.00,SummerDesignDay
8,23.78949438949656
10,9020207.045268134
196,5250661.293205531
2,1, 7,21, 0,16,40.00,50.00,SummerDesignDay
8,23.761794202574966
10,9008936.035655074
196,5250661.293205531
2,1, 7,21, 0,16,50.00,60.00,SummerDesignDay
8,23.73406378751502
10,8997722.98142012
196,5250661.293205531
2,1, 7,21, 0,16, 0.00,60.00,SummerDesignDay
354,25.19198198964378
394,25.68797955045433
434,25.00123804780594
474,28.932743993909907
2,1, 7,21, 0,17, 0.00,10.00,SummerDesignDay
8,23.697054775626556
10,8982862.227934272
196,5250661.293205531
2,1, 7,21, 0,17,10.00,20.00,SummerDesignDay
8,23.6599783115869
10,8968104.106352553
196,5250661.293205531
2,1, 7,21, 0,17,20.00,30.00,SummerDesignDay
8,23.622847444535969
10,8953448.39099088
196,5250661.293205531
2,1, 7,21, 0,17,30.00,40.00,SummerDesignDay
8,23.58565618723456
10,8938894.858220485
196,5250661.293205531
2,1, 7,21, 0,17,40.00,50.00,SummerDesignDay
8,23.54841424944162
10,8924443.286447095
196,5250661.293205531
2,1, 7,21, 0,17,50.00,60.00,SummerDesignDay
8,23.511117541100405
10,8910093.456090359
196,5250661.293205531
2,1, 7,21, 0,17, 0.00,60.00,SummerDesignDay
354,25.207381566575966
394,25.625398738144729
434,24.717036949119927
474,29.127422109794737
2,1, 7,21, 0,18, 0.00,10.00,SummerDesignDay
8,23.46443177589539
10,8892298.910719999
196,5250661.293205531
2,1, 7,21, 0,18,10.00,20.00,SummerDesignDay
8,23.417645347421194
10,8874662.575835213
196,5250661.293205531
2,1, 7,21, 0,18,20.00,30.00,SummerDesignDay
8,23.37076738995751
10,8857184.035550554
196,5250661.293205531
2,1, 7,21, 0,18,30.00,40.00,SummerDesignDay
8,23.32380667253063
10,8839862.878678766
196,5250661.293205531
2,1, 7,21, 0,18,40.00,50.00,SummerDesignDay
8,23.276771548925553
10,8819645.907048826
196,5250661.293205531
2,1, 7,21, 0,18,50.00,60.00,SummerDesignDay
8,23.22963542844925
10,8762314.364386909
196,5250661.293205531
2,1, 7,21, 0,18, 0.00,60.00,SummerDesignDay
354,24.923897091326368
394,25.33396542072379
434,24.114844673991305
474,29.34269920562482
2,1, 7,21, 0,19, 0.00,10.00,SummerDesignDay
8,23.158769132175448
10,8685291.574159237
196,5250661.293205531
2,1, 7,21, 0,19,10.00,20.00,SummerDesignDay
8,23.08769933017214
10,8618997.2251479
196,5250661.293205531
2,1, 7,21, 0,19,20.00,30.00,SummerDesignDay
8,23.01643294068808
10,8557037.45443863
196,5250661.293205531
2,1, 7,21, 0,19,30.00,40.00,SummerDesignDay
8,22.944964813516735
10,8479800.261138943
196,5250661.293205531
2,1, 7,21, 0,19,40.00,50.00,SummerDesignDay
8,22.87328946941633
10,8392831.142665677
196,5250661.293205531
2,1, 7,21, 0,19,50.00,60.00,SummerDesignDay
8,22.801415463189163
10,8311416.510827867
196,5250661.293205531
2,1, 7,21, 0,19, 0.00,60.00,SummerDesignDay
354,24.19096339543054
394,24.561644997719755
434,23.998882109424519
474,29.553165501767724
2,1, 7,21, 0,20, 0.00,10.00,SummerDesignDay
8,22.748574910976595
10,8231355.519924467
196,5250661.293205531
2,1, 7,21, 0,20,10.00,20.00,SummerDesignDay
8,22.695627267462045
10,8174104.510249168
196,5250661.293205531
2,1, 7,21, 0,20,20.00,30.00,SummerDesignDay
8,22.64256571696456
10,8126179.808572382
196,5250661.293205531
2,1, 7,21, 0,20,30.00,40.00,SummerDesignDay
8,22.589396232339579
10,8084865.38543618
196,5250661.293205531
2,1, 7,21, 0,20,40.00,50.00,SummerDesignDay
8,22.536111913802725
10,8047636.058369249
196,5250661.293205531
2,1, 7,21, 0,20,50.00,60.00,SummerDesignDay
8,22.48271872787456
10,8013134.800680615
196,5250661.293205531
2,1, 7,21, 0,20, 0.00,60.00,SummerDesignDay
354,23.99495461637362
394,24.044760991939766
434,23.99887715468888
474,29.7294905848
2,1, 7,21, 0,21, 0.00,10.00,SummerDesignDay
8,22.438946991844256
10,7985029.209867951
196,5250661.293205531
2,1, 7,21, 0,21,10.00,20.00,SummerDesignDay
8,22.395099409644044
10,7958451.195719256
196,5250661.293205531
2,1, 7,21, 0,21,20.00,30.00,SummerDesignDay
8,22.351180671852889
10,7932959.25348659
196,5250661.293205531
2,1, 7,21, 0,21,30.00,40.00,SummerDesignDay
8,22.307181470765494
10,7908285.630397726
196,5250661.293205531
2,1, 7,21, 0,21,40.00,50.00,SummerDesignDay
8,22.263110662609536
10,7884269.954889172
196,5250661.293205531
2,1, 7,21, 0,21,50.00,60.00,SummerDesignDay
8,22.21895881139779
10,7860808.44750557
196,5250661.293205531
2,1, 7,21, 0,21, 0.00,60.00,SummerDesignDay
354,23.994324279365285
394,24.00105653372216
434,23.998872488863396
474,29.843914091242899
2,1, 7,21, 0,22, 0.00,10.00,SummerDesignDay
8,22.174730535170604
10,7837834.760845786
196,5250661.293205531
2,1, 7,21, 0,22,10.00,20.00,SummerDesignDay
8,22.130430418804925
10,7813283.713930787
196,5250661.293205531
2,1, 7,21, 0,22,20.00,30.00,SummerDesignDay
8,22.086048140653394
10,7791780.293580864
196,5250661.293205531
2,1, 7,21, 0,22,30.00,40.00,SummerDesignDay
8,22.041598325744148
10,7771170.810951423
196,5250661.293205531
2,1, 7,21, 0,22,40.00,50.00,SummerDesignDay
8,21.99705582201098
10,7750294.822044756
196,5250661.293205531
2,1, 7,21, 0,22,50.00,60.00,SummerDesignDay
8,21.952441788560358
10,7729127.351803692
196,5250661.293205531
2,1, 7,21, 0,22, 0.00,60.00,SummerDesignDay
354,23.994228189914627
394,23.99917740381368
434,23.99885805248744
474,29.888508619881735
2,1, 7,21, 0,23, 0.00,10.00,SummerDesignDay
8,21.91769709716694
10,7728012.878193828
196,5250661.293205531
2,1, 7,21, 0,23,10.00,20.00,SummerDesignDay
8,21.88289041220444
10,7729776.579160428
196,5250661.293205531
2,1, 7,21, 0,23,20.00,30.00,SummerDesignDay
8,21.848041790707858
10,7730430.452434437
196,5250661.293205531
2,1, 7,21, 0,23,30.00,40.00,SummerDesignDay
8,21.813154878897213
10,7723867.158097428
196,5250661.293205531
2,1, 7,21, 0,23,40.00,50.00,SummerDesignDay
8,21.778205849830507
10,7714872.080327207
196,5250661.293205531
2,1, 7,21, 0,23,50.00,60.00,SummerDesignDay
8,21.743214018755109
10,7704117.680758446
196,5250661.293205531
2,1, 7,21, 0,23, 0.00,60.00,SummerDesignDay
354,23.995733677509038
394,24.5155328414311
434,24.712557587494076
474,29.8734900294554
2,1, 7,21, 0,24, 0.00,10.00,SummerDesignDay
8,21.70817424487337
10,7692094.851282276
196,5250661.293205531
2,1, 7,21, 0,24,10.00,20.00,SummerDesignDay
8,21.673091361206166
10,7679472.082155352
196,5250661.293205531
2,1, 7,21, 0,24,20.00,30.00,SummerDesignDay
8,21.637955987656399
10,7666558.515983174
196,5250661.293205531
2,1, 7,21, 0,24,30.00,40.00,SummerDesignDay
8,21.60277230834171
10,7653505.604719933
196,5250661.293205531
2,1, 7,21, 0,24,40.00,50.00,SummerDesignDay
8,21.567545086080963
10,7640421.8215053309
196,5250661.293205531
2,1, 7,21, 0,24,50.00,60.00,SummerDesignDay
8,21.532264988939504
10,7627378.536977048
196,5250661.293205531
2,1, 7,21, 0,24, 0.00,60.00,SummerDesignDay
354,23.994623677895225
394,24.57241625455464
434,24.813853251932217
474,29.810604721473255
3,1, 7,21, 0,SummerDesignDay
355,59.86161017027416,47.837645260285928, 2,10,75.85834813564252, 6, 5
395,47.754059676130207,34.61613875527216, 4,10,52.16691451872464, 1,30
435,56.31606720864533,52.81817528782822, 9,30,61.28933369666847, 2,60
475,56.49219303706514,54.261350272114288,22,50,58.64609557761822,12,10
4,1, 7
7,28.822999999999998,24.0,21, 5,60,34.4,21,14,60
1,BALTIMORE BLT WASHNGTN INTL ANN CLG .4% CONDNS DP=>MDB,  39.17, -76.68,  -5.00,  45.00
2,1, 7,21, 0, 1, 0.00,10.00,SummerDesignDay
8,19.167998095775816
10,6337153.1111672469
196,5250661.293205531
2,1, 7,21, 0, 1,10.00,20.00,SummerDesignDay
8,19.063995361328126
10,6292502.721898248
196,5250661.293205531
2,1, 7,21, 0, 1,20.00,30.00,SummerDesignDay
8,18.959991455078126
10,6249588.892705942
196,5250661.293205531
2,1, 7,21, 0, 1,30.00,40.00,SummerDesignDay
8,18.855987548828126
10,6207435.671880546
196,5250661.293205531
2,1, 7,21, 0, 1,40.00,50.00,SummerDesignDay
8,18.751994993045736
10,6165909.596257845
196,5250661.293205531
2,1, 7,21, 0, 1,50.00,60.00,SummerDesignDay
8,18.647994936013494
10,6125003.858627056
196,5250661.293205531
2,1, 7,21, 0, 1, 0.00,60.00,SummerDesignDay
354,23.992800011598889
394,23.998286208895068
434,20.721925917300167
474,26.885768329819319
2,1, 7,21, 0, 2, 0.00,10.00,SummerDesignDay
8,18.578659057617189
10,4801351.72542784
196,5250661.293205531
2,1, 7,21, 0, 2,10.00,20.00,SummerDesignDay
8,18.509323120117189
10,4695182.1746788439
196,5250661.293205531
2,1, 7,21, 0, 2,20.00,30.00,SummerDesignDay
8,18.439987182617189
10,4714685.232769344
196,5250661.293205531
2,1, 7,21, 0, 2,30.00,40.00,SummerDesignDay
8,18.370661354252137
10,4722512.73049536
196,5250661.293205531
2,1, 7,21, 0, 2,40.00,50.00,SummerDesignDay
8,18.30133016597099
10,4723810.625966671
196,5250661.293205531
2,1, 7,21, 0, 2,50.00,60.00,SummerDesignDay
8,18.23199462890625
10,4722022.3093706709
196,5250661.293205531
2,1, 7,21, 0, 2, 0.00,60.00,SummerDesignDay
354,28.27908729178736
394,29.890929910019776
434,20.408487405927749
474,26.76233774546775
2,1, 7,21, 0, 3, 0.00,10.00,SummerDesignDay
8,18.17999267578125
10,4720492.13337829
196,5250661.293205531
2,1, 7,21, 0, 3,10.00,20.00,SummerDesignDay
8,18.12799072265625
10,4717890.5871173529
196,5250661.293205531
2,1, 7,21, 0, 3,20.00,30.00,SummerDesignDay
8,18.07598876953125
10,4714292.514211026
196,5250661.293205531
2,1, 7,21, 0, 3,30.00,40.00,SummerDesignDay
8,18.02398681640625
10,4709944.819359937
196,5250661.293205531
2,1, 7,21, 0, 3,40.00,50.00,SummerDesignDay
8,17.97198486328125
10,4705035.319596719
196,5250661.293205531
2,1, 7,21, 0, 3,50.00,60.00,SummerDesignDay
8,17.91999742068943
10,4699691.655484751
196,5250661.293205531
2,1, 7,21, 0, 3, 0.00,60.00,SummerDesignDay
354,29.5492960386613
394,29.99757272297903
434,20.190607437696867
474,26.600158518622164
2,1, 7,21, 0, 4, 0.00,10.00,SummerDesignDay
8,17.867993370017336
10,4694006.421348912
196,5250661.293205531
2,1, 7,21, 0, 4,10.00,20.00,SummerDesignDay
8,17.815992726718336
10,4688052.459511575
196,5250661.293205531
2,1, 7,21, 0, 4,20.00,30.00,SummerDesignDay
8,17.763992309570314
10,4681886.635711563
196,5250661.293205531
2,1, 7,21, 0, 4,30.00,40.00,SummerDesignDay
8,17.711990356445314
10,4675545.698218774
196,5250661.293205531
2,1, 7,21, 0, 4,40.00,50.00,SummerDesignDay
8,17.659988403320314
10,4669076.964860652
196,5250661.293205531
2,1, 7,21, 0, 4,50.00,60.00,SummerDesignDay
8,17.607986450195314
10,4662509.8219539769
196,5250661.293205531
2,1, 7,21, 0, 4, 0.00,60.00,SummerDesignDay
354,29.80069291312873
394,29.997585975090915
434,20.06693907315389
474,26.458500268052878
2,1, 7,21, 0, 5, 0.00,10.00,SummerDesignDay
8,17.573318481445314
10,4657970.840036216
196,5250661.293205531
2,1, 7,21, 0, 5,10.00,20.00,SummerDesignDay
8,17.538665295330497
10,4653590.205817676
196,5250661.293205531
2,1, 7,21, 0, 5,20.00,30.00,SummerDesignDay
8,17.503995126138759
10,4651805.456012271
196,5250661.293205531
2,1, 7,21, 0, 5,30.00,40.00,SummerDesignDay
8,17.469327802250207
10,4651828.179410914
196,5250661.293205531
2,1, 7,21, 0, 5,40.00,50.00,SummerDesignDay
8,17.434661865234376
10,4651838.578990654
196,5250661.293205531
2,1, 7,21, 0, 5,50.00,60.00,SummerDesignDay
8,17.399993896484376
10,4651838.365302537
196,5250661.293205531
2,1, 7,21, 0, 5, 0.00,60.00,SummerDesignDay
354,29.881648221079407
394,29.997662129474308
434,19.95501500600943
474,26.321169423255524
2,1, 7,21, 0, 6, 0.00,10.00,SummerDesignDay
8,17.434661865234376
10,6393622.194734011
196,5250661.293205531
2,1, 7,21, 0, 6,10.00,20.00,SummerDesignDay
8,17.469327802250207
10,6165072.501022734
196,5250661.293205531
2,1, 7,21, 0, 6,20.00,30.00,SummerDesignDay
8,17.503995126138759
10,6086275.828475869
196,5250661.293205531
2,1, 7,21, 0, 6,30.00,40.00,SummerDesignDay
8,17.538665295330497
10,5901890.523238584
196,5250661.293205531
2,1, 7,21, 0, 6,40.00,50.00,SummerDesignDay
8,17.573318481445314
10,5890085.280640237
196,5250661.293205531
2,1, 7,21, 0, 6,50.00,60.00,SummerDesignDay
8,17.607986450195314
10,5874291.38665588
196,5250661.293205531
2,1, 7,21, 0, 6, 0.00,60.00,SummerDesignDay
354,24.207639874509167
394,24.175411600536405
434,20.21547850444603
474,26.19525520242381
2,1, 7,21, 0, 7, 0.00,10.00,SummerDesignDay
8,17.729324340820314
10,5897103.105421782
196,5250661.293205531
2,1, 7,21, 0, 7,10.00,20.00,SummerDesignDay
8,17.850662231445314
10,5927834.165976668
196,5250661.293205531
2,1, 7,21, 0, 7,20.00,30.00,SummerDesignDay
8,17.97198486328125
10,5961069.631289873
196,5250661.293205531
2,1, 7,21, 0, 7,30.00,40.00,SummerDesignDay
8,18.09332275390625
10,5996743.905708488
196,5250661.293205531
2,1, 7,21, 0, 7,40.00,50.00,SummerDesignDay
8,18.214659047860918
10,6034271.8980868649
196,5250661.293205531
2,1, 7,21, 0, 7,50.00,60.00,SummerDesignDay
8,18.33599853515625
10,6073799.4571847659
196,5250661.293205531
2,1, 7,21, 0, 7, 0.00,60.00,SummerDesignDay
354,23.996559406640505
394,23.999519691481166
434,22.627266135514387
474,26.06180485817781
2,1, 7,21, 0, 8, 0.00,10.00,SummerDesignDay
8,18.630661010742189
10,6236218.147497351
196,5250661.293205531
2,1, 7,21, 0, 8,10.00,20.00,SummerDesignDay
8,18.925323486328126
10,6362221.277753692
196,5250661.293205531
2,1, 7,21, 0, 8,20.00,30.00,SummerDesignDay
8,19.219985961914064
10,6508738.518207914
196,5250661.293205531
2,1, 7,21, 0, 8,30.00,40.00,SummerDesignDay
8,19.514663696289064
10,6726845.471518401
196,5250661.293205531
2,1, 7,21, 0, 8,40.00,50.00,SummerDesignDay
8,19.809326171875
10,7006946.600764213
196,5250661.293205531
2,1, 7,21, 0, 8,50.00,60.00,SummerDesignDay
8,20.103988647460939
10,7334989.631572092
196,5250661.293205531
2,1, 7,21, 0, 8, 0.00,60.00,SummerDesignDay
354,23.992977220564183
394,23.998850076233066
434,23.99793849793616
474,25.90835479221109
2,1, 7,21, 0, 9, 0.00,10.00,SummerDesignDay
8,20.433319091796876
10,7311076.269387577
196,5250661.293205531
2,1, 7,21, 0, 9,10.00,20.00,SummerDesignDay
8,20.762664008933244
10,7312491.252814796
196,5250661.293205531
2,1, 7,21, 0, 9,20.00,30.00,SummerDesignDay
8,21.091991517430196
10,7435967.397297983
196,5250661.293205531
2,1, 7,21, 0, 9,30.00,40.00,SummerDesignDay
8,21.42132568359375
10,7534261.395063617
196,5250661.293205531
2,1, 7,21, 0, 9,40.00,50.00,SummerDesignDay
8,21.75065465913009
10,7612728.301299197
196,5250661.293205531
2,1, 7,21, 0, 9,50.00,60.00,SummerDesignDay
8,22.079986572265626
10,7694634.046691434
196,5250661.293205531
2,1, 7,21, 0, 9, 0.00,60.00,SummerDesignDay
354,23.993894264243627
394,24.00064070768911
434,23.998620500875267
474,25.77349371474939
2,1, 7,21, 0,10, 0.00,10.00,SummerDesignDay
8,22.37465660154375
10,7743265.178507341
196,5250661.293205531
2,1, 7,21, 0,10,10.00,20.00,SummerDesignDay
8,22.66932591233912
10,7768941.993329603
196,5250661.293205531
2,1, 7,21, 0,10,20.00,30.00,SummerDesignDay
8,22.963989208993856
10,7796172.455454314
196,5250661.293205531
2,1, 7,21, 0,10,30.00,40.00,SummerDesignDay
8,23.258651733398439
10,7826858.952210518
196,5250661.293205531
2,1, 7,21, 0,10,40.00,50.00,SummerDesignDay
8,23.553329467773439
10,7861554.2172952969
196,5250661.293205531
2,1, 7,21, 0,10,50.00,60.00,SummerDesignDay
8,23.847991943359376
10,7897050.673180085
196,5250661.293205531
2,1, 7,21, 0,10, 0.00,60.00,SummerDesignDay
354,23.99478510500586
394,24.40492638851502
434,23.99917189317895
474,25.672000298293275
2,1, 7,21, 0,11, 0.00,10.00,SummerDesignDay
8,24.028561783130795
10,7931664.893804058
196,5250661.293205531
2,1, 7,21, 0,11,10.00,20.00,SummerDesignDay
8,24.097231844684918
10,7967658.332426786
196,5250661.293205531
2,1, 7,21, 0,11,20.00,30.00,SummerDesignDay
8,24.165710316115335
10,7998870.073442319
196,5250661.293205531
2,1, 7,21, 0,11,30.00,40.00,SummerDesignDay
8,24.234002528893247
10,8026589.262046716
196,5250661.293205531
2,1, 7,21, 0,11,40.00,50.00,SummerDesignDay
8,24.30211309766482
10,8051507.808696124
196,5250661.293205531
2,1, 7,21, 0,11,50.00,60.00,SummerDesignDay
8,24.370034346085619
10,8074178.640876936
196,5250661.293205531
2,1, 7,21, 0,11, 0.00,60.00,SummerDesignDay
354,23.995055481255255
394,25.033651300259494
434,23.999089458533818
474,25.614464216382037
2,1, 7,21, 0,12, 0.00,10.00,SummerDesignDay
8,24.415216304829906
10,8085648.418086421
196,5250661.293205531
2,1, 7,21, 0,12,10.00,20.00,SummerDesignDay
8,24.460312157630665
10,8093845.624145942
196,5250661.293205531
2,1, 7,21, 0,12,20.00,30.00,SummerDesignDay
8,24.50533065420371
10,8102133.881890744
196,5250661.293205531
2,1, 7,21, 0,12,30.00,40.00,SummerDesignDay
8,24.550264299262204
10,8110230.169209827
196,5250661.293205531
2,1, 7,21, 0,12,40.00,50.00,SummerDesignDay
8,24.595121276857737
10,8118987.40275686
196,5250661.293205531
2,1, 7,21, 0,12,50.00,60.00,SummerDesignDay
8,24.639897921651106
10,8129450.276447368
196,5250661.293205531