Program Version,EnergyPlus, Version 9.1.0-08d2e308bb, YMD=2019.04.09 23:17
1,5,Environment Title[],Latitude[deg],Longitude[deg],Time Zone[],Elevation[m]
2,8,Day of Simulation[],Month[],Day of Month[],DST Indicator[1=yes 0=no],Hour[],StartMinute[],EndMinute[],DayType
3,5,Cumulative Day of Simulation[],Month[],Day of Month[],DST Indicator[1=yes 0=no],DayType  ! When Daily Report Variables Requested
4,2,Cumulative Days of Simulation[],Month[]  ! When Monthly Report Variables Requested
5,1,Cumulative Days of Simulation[] ! When Run Period Report Variables Requested
6,1,Calendar Year of Simulation[] ! When Annual Report Variables Requested
7,9,Environment,Site Outdoor Air Drybulb Temperature [C] !Monthly [Value,Min,Day,Hour,Minute,Max,Day,Hour,Minute]
8,1,Environment,Site Outdoor Air Wetbulb Temperature [C] !TimeStep
1128,1,TZ_CORE_BOTTOM,Zone Air Temperature [C] !Hourly
1129,7,TZ_CORE_BOTTOM,Zone Air Relative Humidity [%] !Daily [Value,Min,Hour,Minute,Max,Hour,Minute]
1168,1,TZ_CORE_GROUND,Zone Air Temperature [C] !Hourly
1169,7,TZ_CORE_GROUND,Zone Air Relative Humidity [%] !Daily [Value,Min,Hour,Minute,Max,Hour,Minute]
1208,1,TZ_CORE_MID,Zone Air Temperature [C] !Hourly
1209,7,TZ_CORE_MID,Zone Air Relative Humidity [%] !Daily [Value,Min,Hour,Minute,Max,Hour,Minute]
1248,1,TZ_CORE_TOP,Zone Air Temperature [C] !Hourly
1249,7,TZ_CORE_TOP,Zone Air Relative Humidity [%] !Daily [Value,Min,Hour,Minute,Max,Hour,Minute]
1288,1,TZ_FIRSTFLOOR_PLENUM,Zone Air Temperature [C] !Hourly
1289,7,TZ_FIRSTFLOOR_PLENUM,Zone Air Relative Humidity [%] !Daily [Value,Min,Hour,Minute,Max,Hour,Minute]
1328,1,TZ_GROUNDFLOOR_PLENUM,Zone Air Temperature [C] !Hourly
1329,7,TZ_GROUNDFLOOR_PLENUM,Zone Air Relative Humidity [%] !Daily [Value,Min,Hour,Minute,Max,Hour,Minute]
1368,1,TZ_MIDFLOOR_PLENUM,Zone Air Temperature [C] !Hourly
1369,7,TZ_MIDFLOOR_PLENUM,Zone Air Relative Humidity [%] !Daily [Value,Min,Hour,Minute,Max,Hour,Minute]
1408,1,TZ_PERIMETER_BOT_ZN_1,Zone Air Temperature [C] !Hourly
1409,7,TZ_PERIMETER_BOT_ZN_1,Zone Air Relative Humidity [%] !Daily [Value,Min,Hour,Minute,Max,Hour,Minute]
1448,1,TZ_PERIMETER_BOT_ZN_2,Zone Air Temperature [C] !Hourly
1449,7,TZ_PERIMETER_BOT_ZN_2,Zone Air Relative Humidity [%] !Daily [Value,Min,Hour,Minute,Max,Hour,Minute]
1488,1,TZ_PERIMETER_BOT_ZN_3,Zone Air Temperature [C] !Hourly
1489,7,TZ_PERIMETER_BOT_ZN_3,Zone Air Relative Humidity [%] !Daily [Value,Min,Hour,Minute,Max,Hour,Minute]
1528,1,TZ_PERIMETER_BOT_ZN_4,Zone Air Temperature [C] !Hourly
1529,7,TZ_PERIMETER_BOT_ZN_4,Zone Air Relative Humidity [%] !Daily [Value,Min,Hour,Minute,Max,Hour,Minute]
1568,1,TZ_PERIMETER_GROUND_ZN_1,Zone Air Temperature [C] !Hourly
1569,7,TZ_PERIMETER_GROUND_ZN_1,Zone Air Relative Humidity [%] !Daily [Value,Min,Hour,Minute,Max,Hour,Minute]
1608,1,TZ_PERIMETER_GROUND_ZN_2,Zone Air Temperature [C] !Hourly
1609,7,TZ_PERIMETER_GROUND_ZN_2,Zone Air Relative Humidity [%] !Daily [Value,Min,Hour,Minute,Max,Hour,Minute]
1648,1,TZ_PERIMETER_GROUND_ZN_3,Zone Air Temperature [C] !Hourly
1649,7,TZ_PERIMETER_GROUND_ZN_3,Zone Air Relative Humidity [%] !Daily [Value,Min,Hour,Minute,Max,Hour,Minute]
1688,1,TZ_PERIMETER_GROUND_ZN_4,Zone Air Temperature [C] !Hourly
1689,7,TZ_PERIMETER_GROUND_ZN_4,Zone Air Relative Humidity [%] !Daily [Value,Min,Hour,Minute,Max,Hour,Minute]
1728,1,TZ_PERIMETER_MID_ZN_1,Zone Air Temperature [C] !Hourly
1729,7,TZ_PERIMETER_MID_ZN_1,Zone Air Relative Humidity [%] !Daily [Value,Min,Hour,Minute,Max,Hour,Minute]
1768,1,TZ_PERIMETER_MID_ZN_2,Zone Air Temperature [C] !Hourly
1769,7,TZ_PERIMETER_MID_ZN_2,Zone Air Relative Humidity [%] !Daily [Value,Min,Hour,Minute,Max,Hour,Minute]
1808,1,TZ_PERIMETER_MID_ZN_3,Zone Air Temperature [C] !Hourly
1809,7,TZ_PERIMETER_MID_ZN_3,Zone Air Relative Humidity [%] !Daily [Value,Min,Hour,Minute,Max,Hour,Minute]
1848,1,TZ_PERIMETER_MID_ZN_4,Zone Air Temperature [C] !Hourly
1849,7,TZ_PERIMETER_MID_ZN_4,Zone Air Relative Humidity [%] !Daily [Value,Min,Hour,Minute,Max,Hour,Minute]
1888,1,TZ_PERIMETER_TOP_ZN_1,Zone Air Temperature [C] !Hourly
1889,7,TZ_PERIMETER_TOP_ZN_1,Zone Air Relative Humidity [%] !Daily [Value,Min,Hour,Minute,Max,Hour,Minute]
1928,1,TZ_PERIMETER_TOP_ZN_2,Zone Air Temperature [C] !Hourly
1929,7,TZ_PERIMETER_TOP_ZN_2,Zone Air Relative Humidity [%] !Daily [Value,Min,Hour,Minute,Max,Hour,Minute]
1968,1,TZ_PERIMETER_TOP_ZN_3,Zone Air Temperature [C] !Hourly
1969,7,TZ_PERIMETER_TOP_ZN_3,Zone Air Relative Humidity [%] !Daily [Value,Min,Hour,Minute,Max,Hour,Minute]
2008,1,TZ_PERIMETER_TOP_ZN_4,Zone Air Temperature [C] !Hourly
2009,7,TZ_PERIMETER_TOP_ZN_4,Zone Air Relative Humidity [%] !Daily [Value,Min,Hour,Minute,Max,Hour,Minute]
2048,1,TZ_TOPFLOOR_PLENUM,Zone Air Temperature [C] !Hourly
2049,7,TZ_TOPFLOOR_PLENUM,Zone Air Relative Humidity [%] !Daily [Value,Min,Hour,Minute,Max,Hour,Minute]
10,1,Electricity:Facility [J] !TimeStep
894,1,Gas:Facility [J] !TimeStep
End of Data Dictionary
1,CHICAGO OHARE INTL AP ANN CLG .4% CONDNS DB=>MWB,  41.98, -87.92,  -6.00, 201.00
2,1, 7,21, 0, 1, 0.00,10.00,SummerDesignDay
8,21.292405530156598
10,115931113.29775332
894,766168.196131842
2,1, 7,21, 0, 1,10.00,20.00,SummerDesignDay
8,21.261960828085749
10,116018296.23481447
894,766168.196131842
2,1, 7,21, 0, 1,20.00,30.00,SummerDesignDay
8,21.2314850100004
10,116086240.88429265
894,766168.196131842
2,1, 7,21, 0, 1,30.00,40.00,SummerDesignDay
8,21.200957900234397
10,116139241.69073627
894,766168.196131842
2,1, 7,21, 0, 1,40.00,50.00,SummerDesignDay
8,21.170403647971147
10,116180554.5283956
894,766168.196131842
2,1, 7,21, 0, 1,50.00,60.00,SummerDesignDay
8,21.13981326633382
10,116212335.9474616
894,766168.196131842
2,1, 7,21, 0, 1, 0.00,60.00,SummerDesignDay
1128,26.6997651620097
1168,28.302869663826017
1208,26.70009795951904
1248,26.700058744252403
1288,27.277822467688947
1328,27.20490846685061
1368,26.99373500466356
1408,26.699245808405086
1448,26.699217169883196
1488,26.699270542999938
1528,26.699139308702859
1568,27.92390243844028
1608,27.879245531422567
1648,27.8006933079177
1688,28.3175298750442
1728,26.699181470879809
1768,26.69914330396315
1808,26.6992200943793
1848,26.699050562258184
1888,26.69904648216124
1928,26.699013733781798
1968,26.699071492612629
2008,26.698922170924978
2048,26.90819971541896
2,1, 7,21, 0, 2, 0.00,10.00,SummerDesignDay
8,21.11939664133838
10,116253443.34692687
894,766168.196131842
2,1, 7,21, 0, 2,10.00,20.00,SummerDesignDay
8,21.098968297299824
10,116288350.43736309
894,766168.196131842
2,1, 7,21, 0, 2,20.00,30.00,SummerDesignDay
8,21.078518554021277
10,116318022.02705018
894,766168.196131842
2,1, 7,21, 0, 2,30.00,40.00,SummerDesignDay
8,21.05805779383344
10,116343071.20710232
894,766168.196131842
2,1, 7,21, 0, 2,40.00,50.00,SummerDesignDay
8,21.0375756719312
10,116364165.71076168
894,766168.196131842
2,1, 7,21, 0, 2,50.00,60.00,SummerDesignDay
8,21.017081539415206
10,116381894.23144268
894,766168.196131842
2,1, 7,21, 0, 2, 0.00,60.00,SummerDesignDay
1128,26.69974796257286
1168,28.33459751985366
1208,26.69996385894225
1248,26.699946856666853
1288,27.295349859622236
1328,27.2094691755035
1368,27.002235316216884
1408,26.699125096804975
1448,26.699108090814055
1488,26.699128162139777
1528,26.69905852293047
1568,27.826078215692534
1608,27.775175085325676
1648,27.714904052472574
1688,28.17040161381544
1728,26.699052686915434
1768,26.69902803614757
1808,26.69906812798676
1848,26.698966299735969
1888,26.69894221204646
1928,26.698920788352809
1968,26.698949742160197
2008,26.698857351172838
2048,26.82695487018603
2,1, 7,21, 0, 3, 0.00,10.00,SummerDesignDay
8,21.00169730031167
10,116405635.92376456
894,766168.196131842
2,1, 7,21, 0, 3,10.00,20.00,SummerDesignDay
8,20.986303472921795
10,116426992.17003438
894,766168.196131842
2,1, 7,21, 0, 3,20.00,30.00,SummerDesignDay
8,20.970905447932056
10,116446336.93649788
894,766168.196131842
2,1, 7,21, 0, 3,30.00,40.00,SummerDesignDay
8,20.955492745559068
10,116463892.41611465
894,766168.196131842
2,1, 7,21, 0, 3,40.00,50.00,SummerDesignDay
8,20.94007141118511
10,116479850.60294202
894,766168.196131842
2,1, 7,21, 0, 3,50.00,60.00,SummerDesignDay
8,20.924645111828125
10,116494391.63710845
894,766168.196131842
2,1, 7,21, 0, 3, 0.00,60.00,SummerDesignDay
1128,26.699742896782046
1168,28.36104471585401
1208,26.699896030749004
1248,26.699893869237326
1288,27.318671701757578
1328,27.216525148754344
1368,27.019109155970598
1408,26.699077636626368
1448,26.699066810799925
1488,26.699069903142847
1528,26.699032256310983
1568,27.74305459374695
1608,27.686206489311315
1648,27.64254034100058
1688,28.04710565790805
1728,26.6990025612025
1768,26.69898516089196
1808,26.69900621439662
1848,26.698940216894923
1888,26.698908619286326
1928,26.698892837613419
1968,26.698908161153779
2008,26.69884409830426
2048,26.76814958882892
2,1, 7,21, 0, 4, 0.00,10.00,SummerDesignDay
8,20.909205468285163
10,116507665.89422049
894,766168.196131842
2,1, 7,21, 0, 4,10.00,20.00,SummerDesignDay
8,20.89375644446627
10,116519808.61700006
894,766168.196131842
2,1, 7,21, 0, 4,20.00,30.00,SummerDesignDay
8,20.878302617175487
10,116530929.6991394
894,766168.196131842
2,1, 7,21, 0, 4,30.00,40.00,SummerDesignDay
8,20.862834696278875
10,116541117.71074225
894,766168.196131842
2,1, 7,21, 0, 4,40.00,50.00,SummerDesignDay
8,20.84736758914109
10,116550455.96585624
894,766168.196131842
2,1, 7,21, 0, 4,50.00,60.00,SummerDesignDay
8,20.83187595308267
10,116559000.39673712
894,766168.196131842
2,1, 7,21, 0, 4, 0.00,60.00,SummerDesignDay
1128,26.699741626006064
1168,28.38409538045502
1208,26.699861553170547
1248,26.69986874199597
1288,27.34417922609534
1328,27.225497578247276
1368,27.039056083916763
1408,26.699059280770638
1448,26.699051676012514
1488,26.699045954112007
1528,26.699024934439128
1568,27.668893036686315
1608,27.60668097316223
1648,27.57790075011381
1688,27.93442040708877
1728,26.69898361326273
1768,26.69897005155723
1808,26.698981034601407
1848,26.69893409653373
1888,26.698900855575049
1928,26.698887803139447
1968,26.698896700047908
2008,26.698847113971956
2048,26.723383223823686
2,1, 7,21, 0, 5, 0.00,10.00,SummerDesignDay
8,20.82154626521223
10,116575284.33040512
894,766168.196131842
2,1, 7,21, 0, 5,10.00,20.00,SummerDesignDay
8,20.811212600492369
10,116590789.99991624
894,766168.196131842
2,1, 7,21, 0, 5,20.00,30.00,SummerDesignDay
8,20.800879423352016
10,116606018.22216843
894,766168.196131842
2,1, 7,21, 0, 5,30.00,40.00,SummerDesignDay
8,20.79053773449398
10,113592973.55494668
894,766168.196131842
2,1, 7,21, 0, 5,40.00,50.00,SummerDesignDay
8,20.780191971271316
10,113032693.59110929
894,766168.196131842
2,1, 7,21, 0, 5,50.00,60.00,SummerDesignDay
8,20.769841693173647
10,111032098.53192047
894,766168.196131842
2,1, 7,21, 0, 5, 0.00,60.00,SummerDesignDay
1128,26.69975767677254
1168,28.404892620852566
1208,26.699854484562129
1248,26.699866450567524
1288,27.370049362646243
1328,27.234145656661373
1368,27.06023785537613
1408,26.699092884501196
1448,26.699008514696489
1488,26.69903915743477
1528,26.69906691213049
1568,27.625455597454434
1608,27.672348317918858
1648,27.59603111302641
1688,27.855753465622
1728,26.699020568886764
1768,26.698923814373616
1808,26.698972787782468
1848,26.698981507218844
1888,26.698949934749835
1928,26.698852369543123
1968,26.698903198321735
2008,26.69890589522751
2048,26.6890735153325
2,1, 7,21, 0, 6, 0.00,10.00,SummerDesignDay
8,20.780191971271316
10,120943687.90936803
894,766168.196131842
2,1, 7,21, 0, 6,10.00,20.00,SummerDesignDay
8,20.79053773449398
10,119021521.53230612
894,766168.196131842
2,1, 7,21, 0, 6,20.00,30.00,SummerDesignDay
8,20.800879423352016
10,118041030.31326404
894,766168.196131842
2,1, 7,21, 0, 6,30.00,40.00,SummerDesignDay
8,20.811212600492369
10,118361322.54841978
894,766168.196131842
2,1, 7,21, 0, 6,40.00,50.00,SummerDesignDay
8,20.82154626521223
10,118527144.46677321
894,766168.196131842
2,1, 7,21, 0, 6,50.00,60.00,SummerDesignDay
8,20.83187595308267
10,118876351.59499866
894,766168.196131842
2,1, 7,21, 0, 6, 0.00,60.00,SummerDesignDay
1128,25.706359906909893
1168,28.48721827180347
1208,25.704356098644813
1248,25.705756386501318
1288,27.402677257031983
1328,27.248936331290726
1368,27.088753570482255
1408,25.697631079993429
1448,25.70416523814478
1488,25.699669700476706
1528,25.701342057111459
1568,27.883251376904537
1608,29.581443201737359
1648,28.52315886085401
1688,28.092932246018845
1728,25.69550221184357
1768,25.70393225932033
1808,25.69739014065149
1848,25.69926866756082
1888,25.696335319563329
1928,25.703910156033758
1968,25.698301799322498
2008,25.70000305402817
2048,26.733543541359635
2,1, 7,21, 0, 7, 0.00,10.00,SummerDesignDay
8,20.867991483822359
10,156865121.1445562
894,766168.196131842
2,1, 7,21, 0, 7,10.00,20.00,SummerDesignDay
8,20.904056518827426
10,147255395.12509335
894,766168.196131842
2,1, 7,21, 0, 7,20.00,30.00,SummerDesignDay
8,20.94007141118511
10,141573696.90425239
894,766168.196131842
2,1, 7,21, 0, 7,30.00,40.00,SummerDesignDay
8,20.976035719324256
10,145228779.2353573
894,766168.196131842
2,1, 7,21, 0, 7,40.00,50.00,SummerDesignDay
8,21.011954667733219
10,142722799.18439228
894,766168.196131842
2,1, 7,21, 0, 7,50.00,60.00,SummerDesignDay
8,21.04781854686137
10,142223563.2964898
894,766168.196131842
2,1, 7,21, 0, 7, 0.00,60.00,SummerDesignDay
1128,25.00792800082834
1168,24.345317473397985
1208,25.009992695226776
1248,25.01003186287315
1288,27.448104956117918
1328,27.291551412731765
1368,27.13148233624933
1408,25.000181110617775
1448,25.000682615832529
1488,25.00802405201006
1528,25.000375214765709
1568,24.15939464838338
1608,24.308611269670576
1648,24.34979954139149
1688,24.104925985336185
1728,25.00005636750718
1768,25.00053096298373
1808,25.008320138352617
1848,25.000261048815859
1888,25.00003327296759
1928,25.00049576499151
1968,25.007585139033009
2008,25.000235137283054
2048,27.0019835382567
2,1, 7,21, 0, 8, 0.00,10.00,SummerDesignDay
8,21.13471110025821
10,156653843.976467
894,766168.196131842
2,1, 7,21, 0, 8,10.00,20.00,SummerDesignDay
8,21.221309664954885
10,151528646.12395648
894,766168.196131842
2,1, 7,21, 0, 8,20.00,30.00,SummerDesignDay
8,21.307616677758387
10,153933881.13225345
894,766168.196131842
2,1, 7,21, 0, 8,30.00,40.00,SummerDesignDay
8,21.393633962021306
10,153616375.37954233
894,766168.196131842
2,1, 7,21, 0, 8,40.00,50.00,SummerDesignDay
8,21.479363454901848
10,153011253.65874643
894,766168.196131842
2,1, 7,21, 0, 8,50.00,60.00,SummerDesignDay
8,21.56480572828825
10,152834387.56929905
894,766168.196131842
2,1, 7,21, 0, 8, 0.00,60.00,SummerDesignDay
1128,24.03360789957961
1168,23.995511869840425
1208,24.041195471557029
1248,24.041201157342173
1288,27.50275780375928
1328,27.337110744119724
1368,27.195186701397579
1408,24.005265562389427
1448,24.027391073608759
1488,24.030004028348686
1528,24.005674249837978
1568,23.996179615470738
1608,23.996075616210047
1648,23.9957620385406
1688,23.99646439055559
1728,24.00571685048899
1768,24.027951880324396
1808,24.030391688240554
1848,24.005513718344969
1888,24.005099074933964
1928,24.02804528521278
1968,24.028350529652003
2008,24.005519867500966
2048,27.49192399800158
2,1, 7,21, 0, 9, 0.00,10.00,SummerDesignDay
8,21.659959494127649
10,152807502.06971408
894,766168.196131842
2,1, 7,21, 0, 9,10.00,20.00,SummerDesignDay
8,21.754763580187868
10,152878065.0321978
894,766168.196131842
2,1, 7,21, 0, 9,20.00,30.00,SummerDesignDay
8,21.849216689035449
10,153005554.5651805
894,766168.196131842
2,1, 7,21, 0, 9,30.00,40.00,SummerDesignDay
8,21.94331558480392
10,153175559.21956835
894,766168.196131842
2,1, 7,21, 0, 9,40.00,50.00,SummerDesignDay
8,22.03707130951595
10,153383429.06652523
894,766168.196131842
2,1, 7,21, 0, 9,50.00,60.00,SummerDesignDay
8,22.13048294716832
10,153654991.71165199
894,766168.196131842
2,1, 7,21, 0, 9, 0.00,60.00,SummerDesignDay
1128,23.99823393606125
1168,23.99551893649003
1208,23.998139732323286
1248,23.998145816380715
1288,27.55680241468538
1328,27.376523842951177
1368,27.281124727543359
1408,23.99797591322621
1448,23.998191844866047
1488,23.997996077721998
1528,23.998190698444163
1568,23.995746630634643
1608,23.996130747837844
1648,23.995349001281544
1688,23.996345701310078
1728,23.997901823985118
1768,23.998124214498149
1808,23.997921018342635
1848,23.998127430734244
1888,23.99787053316551
1928,23.99808178435764
1968,23.997898486809178
2008,23.998095012878797
2048,28.154894323296685
2,1, 7,21, 0,10, 0.00,10.00,SummerDesignDay
8,22.213769814432565
10,153888799.60640446
894,766168.196131842
2,1, 7,21, 0,10,10.00,20.00,SummerDesignDay
8,22.29678365659492
10,154116231.38327579
894,766168.196131842
2,1, 7,21, 0,10,20.00,30.00,SummerDesignDay
8,22.379526518080718
10,154333449.4890869
894,766168.196131842
2,1, 7,21, 0,10,30.00,40.00,SummerDesignDay
8,22.461998883090386
10,154534189.02460046
894,766168.196131842
2,1, 7,21, 0,10,40.00,50.00,SummerDesignDay
8,22.54420357090447
10,154712938.18779028
894,766168.196131842
2,1, 7,21, 0,10,50.00,60.00,SummerDesignDay
8,22.626140889876245
10,154867134.38980425
894,766168.196131842
2,1, 7,21, 0,10, 0.00,60.00,SummerDesignDay
1128,23.998327815823843
1168,23.99564609872067
1208,23.998274987193836
1248,23.998272007392346
1288,27.59815874152309
1328,27.415302613319598
1368,27.355357370020206
1408,23.99801815205885
1448,23.998393415420535
1488,23.998101892687047
1528,23.998305084016257
1568,23.99556840737623
1608,23.996522742859726
1648,23.995339318639897
1688,23.996408611845088
1728,23.997946692604719
1768,23.998332619283074
1808,23.998032719655197
1848,23.998247923061255
1888,23.99790980505026
1928,23.998289076249518
1968,23.99800359618293
2008,23.99821070705681
2048,28.83148210167381
2,1, 7,21, 0,11, 0.00,10.00,SummerDesignDay
8,22.698217126852719
10,154973617.3076881
894,766168.196131842
2,1, 7,21, 0,11,10.00,20.00,SummerDesignDay
8,22.770087609245694
10,155050067.73810403
894,766168.196131842
2,1, 7,21, 0,11,20.00,30.00,SummerDesignDay
8,22.841753902583265
10,155096999.55965338
894,766168.196131842
2,1, 7,21, 0,11,30.00,40.00,SummerDesignDay
8,22.913216778184393
10,155119627.33575113
894,766168.196131842
2,1, 7,21, 0,11,40.00,50.00,SummerDesignDay
8,22.984480922747989
10,155120467.23473449
894,766168.196131842
2,1, 7,21, 0,11,50.00,60.00,SummerDesignDay
8,23.055539233117515
10,155108296.43634833
894,766168.196131842
2,1, 7,21, 0,11, 0.00,60.00,SummerDesignDay
1128,23.99833551875534
1168,23.99566406779458
1208,23.998298679983564
1248,23.998288230746139
1288,27.63504975990195
1328,27.450117644066038
1368,27.409742999564686
1408,23.998042607722259
1448,23.998508820156166
1488,23.998123614382327
1528,23.998328568025277
1568,23.99559366468709
1608,23.996859688483246
1648,23.99536707208497
1688,23.996448554916087
1728,23.997971511258858
1768,23.998453764031458
1808,23.99805583184669
1848,23.998272858643089
1888,23.997931145795268
1928,23.998409058304906
1968,23.998021694598149
2008,23.99823171179477
2048,29.415922925078048
2,1, 7,21, 0,12, 0.00,10.00,SummerDesignDay
8,23.102801503400955
10,155027823.01164497
894,766168.196131842
2,1, 7,21, 0,12,10.00,20.00,SummerDesignDay
8,23.149970529930298
10,154946278.9135267
894,766168.196131842
2,1, 7,21, 0,12,20.00,30.00,SummerDesignDay
8,23.197054535495359
10,154874481.0243111
894,766168.196131842
2,1, 7,21, 0,12,30.00,40.00,SummerDesignDay
8,23.24405091760279
10,154825188.65728206
894,766168.196131842
2,1, 7,21, 0,12,40.00,50.00,SummerDesignDay
8,23.290959239877084
10,154812174.96024827
894,766168.196131842
2,1, 7,21, 0,12,50.00,60.00,SummerDesignDay
8,23.337780161397366
10,154864572.24509607
894,766168.196131842
2,1, 7,21, 0,12, 0.00,60.00,SummerDesignDay
1128,23.998325987524596
1168,23.995668361120253
1208,23.998296938904799
1248,23.99827969529909
1288,27.663551591055638
1328,27.471163035735093
1368,27.446574726774917
1408,23.998100854419574
1448,23.99855925486013
1488,23.998126918924429
1528,23.998333350939875
1568,23.9957444415605
1608,23.997051847779024
1648,23.99538059121721
1688,23.99647455963748
1728,23.998032035708165
1768,23.998508454061
1808,23.99805990331299
1848,23.998278429546745
1888,23.99798984043555
1928,23.998460343561459
1968,23.99802178561019
2008,23.99823432739571
2048,29.877549920494919
2,1, 7,21, 0,13, 0.00,10.00,SummerDesignDay
8,23.375168696321454
10,155001756.3997727
894,766168.196131842
2,1, 7,21, 0,13,10.00,20.00,SummerDesignDay
8,23.412509317763463
10,155205692.2374452
894,766168.196131842
2,1, 7,21, 0,13,20.00,30.00,SummerDesignDay
8,23.44978183331926
10,155460344.25030426
894,766168.196131842
2,1, 7,21, 0,13,30.00,40.00,SummerDesignDay
8,23.48701638811906
10,155754296.15864317
894,766168.196131842
2,1, 7,21, 0,13,40.00,50.00,SummerDesignDay
8,23.52417733438429
10,156077304.4142081
894,766168.196131842
2,1, 7,21, 0,13,50.00,60.00,SummerDesignDay
8,23.561301163043504
10,156419806.35635675
894,766168.196131842
2,1, 7,21, 0,13, 0.00,60.00,SummerDesignDay
1128,23.998321525830986
1168,23.995663588923109
1208,23.99829441455236
1248,23.9982714980834
1288,27.68040213801712
1328,27.482892140537147
1368,27.466989693976019
1408,23.998179485766558
1448,23.998436133334534
1488,23.998127955710417
1528,23.99819406363635
1568,23.99594499961312
1608,23.996703968635335
1648,23.9953715263841
1688,23.996086674759089
1728,23.998113649323974
1768,23.99838254769225
1808,23.99806121968886
1848,23.998134217136493
1888,23.9980701505385
1928,23.998331169364794
1968,23.99802015648953
2008,23.99809121572304
2048,30.190706987999137
2,1, 7,21, 0,14, 0.00,10.00,SummerDesignDay
8,23.584468652232446
10,156734384.0854057
894,5093378.972430758
2,1, 7,21, 0,14,10.00,20.00,SummerDesignDay
8,23.607614591370639
10,157048648.61191774
894,766168.196131842
2,1, 7,21, 0,14,20.00,30.00,SummerDesignDay
8,23.630734203455029
10,157354907.4898218
894,766168.196131842
2,1, 7,21, 0,14,30.00,40.00,SummerDesignDay
8,23.65384967253545
10,157647393.4097014
894,5085209.386061075
2,1, 7,21, 0,14,40.00,50.00,SummerDesignDay
8,23.676931270816597
10,157920758.3309516
894,766168.196131842
2,1, 7,21, 0,14,50.00,60.00,SummerDesignDay
8,23.699991650503447
10,158170206.04066695
894,994556.0049343576
2,1, 7,21, 0,14, 0.00,60.00,SummerDesignDay
1128,23.998324604043615
1168,23.995650055512589
1208,23.998295702962186
1248,23.998268852131078
1288,27.69362268481494
1328,27.496270728502876
1368,27.48051353248073
1408,23.998268685095327
1448,23.998385411837409
1488,23.9981356294649
1528,23.99798702567274
1568,23.996176658421065
1608,23.9965604752506
1648,23.995364532001415
1688,23.99549702792035
1728,23.998206472041365
1768,23.998330455686469
1808,23.998069120955596
1848,23.997917099266787
1888,23.998161243524494
1928,23.998278215692
1968,23.998026321313018
2008,23.99788066095193
2048,30.359387025214248
2,1, 7,21, 0,15, 0.00,10.00,SummerDesignDay
8,23.699991650503447
10,158324034.28251896
894,4703744.9786553899
2,1, 7,21, 0,15,10.00,20.00,SummerDesignDay
8,23.699991650503447
10,158445268.99187649
894,766168.196131842
2,1, 7,21, 0,15,20.00,30.00,SummerDesignDay
8,23.699991650503447
10,158532674.48803119
894,766168.196131842
2,1, 7,21, 0,15,30.00,40.00,SummerDesignDay
8,23.699991650503447
10,158584833.2763908
894,766168.196131842
2,1, 7,21, 0,15,40.00,50.00,SummerDesignDay
8,23.699991650503447
10,158603221.6095283
894,766168.196131842
2,1, 7,21, 0,15,50.00,60.00,SummerDesignDay
8,23.699991650503447
10,158588384.27845488
894,946368.4578888997
2,1, 7,21, 0,15, 0.00,60.00,SummerDesignDay
1128,23.99832265681147
1168,23.99564316156709
1208,23.998294331536145
1248,23.998265107073704
1288,27.704364351427015
1328,27.51906808520256
1368,27.491065686801098
1408,23.998349732533943
1448,23.99838327709141
1488,23.998148908923765
1528,23.998021181440419
1568,23.996415500891346
1608,23.99657293325703
1648,23.995393066781216
1688,23.995574490033858
1728,23.99829170153571
1768,23.998328838569337
1808,23.998083329547556
1848,23.997950141585638
1888,23.998243395458613
1928,23.99827615215222
1968,23.998039348704766
2008,23.997916431408485
2048,30.38842116346451
2,1, 7,21, 0,16, 0.00,10.00,SummerDesignDay
8,23.672307358563665
10,158421990.4245502
894,4721608.610195644
2,1, 7,21, 0,16,10.00,20.00,SummerDesignDay
8,23.64460948071794
10,158247528.11279265
894,766168.196131842
2,1, 7,21, 0,16,20.00,30.00,SummerDesignDay
8,23.61686844545739
10,158052062.67798106
894,766168.196131842
2,1, 7,21, 0,16,30.00,40.00,SummerDesignDay
8,23.589091188236055
10,157819998.52198217
894,766168.196131842
2,1, 7,21, 0,16,40.00,50.00,SummerDesignDay
8,23.561301163043504
10,157565318.95301537
894,766168.196131842
2,1, 7,21, 0,16,50.00,60.00,SummerDesignDay
8,23.533467080370163
10,157300250.60188479
894,766168.196131842
2,1, 7,21, 0,16, 0.00,60.00,SummerDesignDay
1128,23.998313848698826
1168,23.995641760676177
1208,23.998288688591655
1248,23.998258503797744
1288,27.703674515034039
1328,27.5433446451443
1368,27.489885346227799
1408,23.998404428507773
1448,23.998399423375309
1488,23.998176423868796
1528,23.998136109317995
1568,23.996598385061295
1608,23.996641650250227
1648,23.995495707426174
1688,23.995875764707266
1728,23.998350445299584
1768,23.99834665487546
1808,23.99811302219035
1848,23.998068588994035
1888,23.998297757589105
1928,23.998293122274263
1968,23.998067307686214
2008,23.998034516651914
2048,30.266599277790218
2,1, 7,21, 0,17, 0.00,10.00,SummerDesignDay
8,23.496315172028504
10,157009974.17213414
894,4996652.291196764
2,1, 7,21, 0,17,10.00,20.00,SummerDesignDay
8,23.459098962673627
10,156714998.17885185
894,766168.196131842
2,1, 7,21, 0,17,20.00,30.00,SummerDesignDay
8,23.421835869543999
10,156460297.4626945
894,766168.196131842
2,1, 7,21, 0,17,30.00,40.00,SummerDesignDay
8,23.384509217485939
10,156209869.3896391
894,766168.196131842
2,1, 7,21, 0,17,40.00,50.00,SummerDesignDay
8,23.34713053816139
10,155929409.05625267
894,4999660.03716481
2,1, 7,21, 0,17,50.00,60.00,SummerDesignDay
8,23.309695989572697
10,155616383.5393443
894,766168.196131842
2,1, 7,21, 0,17, 0.00,60.00,SummerDesignDay
1128,23.998304616221689
1168,23.995616653415508
1208,23.9982827521202
1248,23.998253278825584
1288,27.684713167056434
1328,27.558297300221658
1368,27.47195913660938
1408,23.998380631769057
1448,23.998410754955839
1488,23.998168022378527
1528,23.998258780483938
1568,23.996546988438895
1608,23.996689599427844
1648,23.995488949174115
1688,23.996183050043144
1728,23.99832788229716
1768,23.998359514035149
1808,23.998105435590984
1848,23.998195597559488
1888,23.998273487482707
1928,23.998305284311085
1968,23.998059959524374
2008,23.99815998369989
2048,29.986653764707215
2,1, 7,21, 0,18, 0.00,10.00,SummerDesignDay
8,23.262826699708766
10,155265541.88696359
894,766168.196131842
2,1, 7,21, 0,18,10.00,20.00,SummerDesignDay
8,23.21586584854855
10,154890414.9917984
894,766168.196131842
2,1, 7,21, 0,18,20.00,30.00,SummerDesignDay
8,23.168816376440029
10,154586363.8002944
894,766168.196131842
2,1, 7,21, 0,18,30.00,40.00,SummerDesignDay
8,23.12167829542215
10,153989726.57208575
894,766168.196131842
2,1, 7,21, 0,18,40.00,50.00,SummerDesignDay
8,23.074452033295477
10,153484490.66302667
894,766168.196131842
2,1, 7,21, 0,18,50.00,60.00,SummerDesignDay
8,23.02714043821021
10,152987331.44877405
894,766168.196131842
2,1, 7,21, 0,18, 0.00,60.00,SummerDesignDay
1128,23.99829325115506
1168,23.995600697487803
1208,23.998269961513274
1248,23.99824363112818
1288,27.654284477616796
1328,27.561245316808998
1368,27.443043360455837
1408,23.998359927248658
1448,23.99843096193057
1488,23.998094168386286
1528,23.998401889034793
1568,23.996515964108963
1608,23.99675931269168
1648,23.99526116222981
1688,23.996505454267454
1728,23.998309173888147
1768,23.998381645251859
1808,23.99802884968545
1848,23.99834497527954
1888,23.99825538458278
1928,23.998326816267796
1968,23.997989730335349
2008,23.998306024127019
2048,29.5699474570707
2,1, 7,21, 0,19, 0.00,10.00,SummerDesignDay
8,22.955998030729086
10,152232074.81547005
894,766168.196131842
2,1, 7,21, 0,19,10.00,20.00,SummerDesignDay
8,22.884656963830858
10,151486564.52672089
894,4846873.460947643
2,1, 7,21, 0,19,20.00,30.00,SummerDesignDay
8,22.813112648278538
10,150967716.0506086
894,766168.196131842
2,1, 7,21, 0,19,30.00,40.00,SummerDesignDay
8,22.74136475535084
10,150497345.4350264
894,766168.196131842
2,1, 7,21, 0,19,40.00,50.00,SummerDesignDay
8,22.669412429768046
10,149512262.58223299
894,766168.196131842
2,1, 7,21, 0,19,50.00,60.00,SummerDesignDay
8,22.597249180691447
10,149400652.66136614
894,766168.196131842
2,1, 7,21, 0,19, 0.00,60.00,SummerDesignDay
1128,23.998277321630824
1168,23.99563320004295
1208,23.998258271538135
1248,23.998235928173377
1288,27.606028562282395
1328,27.544512968245458
1368,27.395779230644977
1408,23.998363868309494
1448,23.998431659024644
1488,23.99818684691773
1528,23.998566032922367
1568,23.996619053852343
1608,23.99683039860913
1648,23.99564670120799
1688,23.997080764868384
1728,23.99831344579106
1768,23.99838405163678
1808,23.998126499411133
1848,23.998516472658083
1888,23.998259745756586
1928,23.99832941224641
1968,23.998084171327446
2008,23.998470918666326
2048,29.044052602606077
2,1, 7,21, 0,20, 0.00,10.00,SummerDesignDay
8,22.54420357090447
10,150102655.08727477
894,766168.196131842
2,1, 7,21, 0,20,10.00,20.00,SummerDesignDay
8,22.49104180927024
10,154417838.92800019
894,766168.196131842
2,1, 7,21, 0,20,20.00,30.00,SummerDesignDay
8,22.437767475426619
10,153686455.42784555
894,766168.196131842
2,1, 7,21, 0,20,30.00,40.00,SummerDesignDay
8,22.384385775235136
10,153102799.1720833
894,766168.196131842
2,1, 7,21, 0,20,40.00,50.00,SummerDesignDay
8,22.33088606837434
10,152602904.75366829
894,766168.196131842
2,1, 7,21, 0,20,50.00,60.00,SummerDesignDay
8,22.277273112035258
10,152161427.2386436
894,766168.196131842
2,1, 7,21, 0,20, 0.00,60.00,SummerDesignDay
1128,23.998263411146767
1168,23.99571204555862
1208,23.998260852480873
1248,23.99824152961987
1288,27.53521181548541
1328,27.492022598234553
1368,27.32589273264146
1408,23.998336744391364
1448,23.99841223439535
1488,23.99831076119114
1528,23.99864928937987
1568,23.996671719382495
1608,23.99685720501087
1648,23.996339378522128
1688,23.997514623543496
1728,23.998287634589138
1768,23.998365596463289
1808,23.99825817959861
1848,23.998605847514175