Program Version,EnergyPlus, Version 9.1.0-08d2e308bb, YMD=2019.04.09 23:09
1,5,Environment Title[],Latitude[deg],Longitude[deg],Time Zone[],Elevation[m]
2,8,Day of Simulation[],Month[],Day of Month[],DST Indicator[1=yes 0=no],Hour[],StartMinute[],EndMinute[],DayType
3,5,Cumulative Day of Simulation[],Month[],Day of Month[],DST Indicator[1=yes 0=no],DayType  ! When Daily Report Variables Requested
4,2,Cumulative Days of Simulation[],Month[]  ! When Monthly Report Variables Requested
5,1,Cumulative Days of Simulation[] ! When Run Period Report Variables Requested
6,1,Calendar Year of Simulation[] ! When Annual Report Variables Requested
7,9,Environment,Site Outdoor Air Drybulb Temperature [C] !Monthly [Value,Min,Day,Hour,Minute,Max,Day,Hour,Minute]
8,1,Environment,Site Outdoor Air Wetbulb Temperature [C] !TimeStep
938,1,CORE_BOTTOM ZN,Zone Air Temperature [C] !Hourly
939,7,CORE_BOTTOM ZN,Zone Air Relative Humidity [%] !Daily [Value,Min,Hour,Minute,Max,Hour,Minute]
978,1,CORE_MID ZN,Zone Air Temperature [C] !Hourly
979,7,CORE_MID ZN,Zone Air Relative Humidity [%] !Daily [Value,Min,Hour,Minute,Max,Hour,Minute]
1018,1,CORE_TOP ZN,Zone Air Temperature [C] !Hourly
1019,7,CORE_TOP ZN,Zone Air Relative Humidity [%] !Daily [Value,Min,Hour,Minute,Max,Hour,Minute]
1058,1,FIRSTFLOOR_PLENUM ZN,Zone Air Temperature [C] !Hourly
1059,7,FIRSTFLOOR_PLENUM ZN,Zone Air Relative Humidity [%] !Daily [Value,Min,Hour,Minute,Max,Hour,Minute]
1098,1,MIDFLOOR_PLENUM ZN,Zone Air Temperature [C] !Hourly
1099,7,MIDFLOOR_PLENUM ZN,Zone Air Relative Humidity [%] !Daily [Value,Min,Hour,Minute,Max,Hour,Minute]
1138,1,PERIMETER_BOT_ZN_1 ZN,Zone Air Temperature [C] !Hourly
1139,7,PERIMETER_BOT_ZN_1 ZN,Zone Air Relative Humidity [%] !Daily [Value,Min,Hour,Minute,Max,Hour,Minute]
1178,1,PERIMETER_BOT_ZN_2 ZN,Zone Air Temperature [C] !Hourly
1179,7,PERIMETER_BOT_ZN_2 ZN,Zone Air Relative Humidity [%] !Daily [Value,Min,Hour,Minute,Max,Hour,Minute]
1218,1,PERIMETER_BOT_ZN_3 ZN,Zone Air Temperature [C] !Hourly
1219,7,PERIMETER_BOT_ZN_3 ZN,Zone Air Relative Humidity [%] !Daily [Value,Min,Hour,Minute,Max,Hour,Minute]
1258,1,PERIMETER_BOT_ZN_4 ZN,Zone Air Temperature [C] !Hourly
1259,7,PERIMETER_BOT_ZN_4 ZN,Zone Air Relative Humidity [%] !Daily [Value,Min,Hour,Minute,Max,Hour,Minute]
1298,1,PERIMETER_MID_ZN_1 ZN,Zone Air Temperature [C] !Hourly
1299,7,PERIMETER_MID_ZN_1 ZN,Zone Air Relative Humidity [%] !Daily [Value,Min,Hour,Minute,Max,Hour,Minute]
1338,1,PERIMETER_MID_ZN_2 ZN,Zone Air Temperature [C] !Hourly
1339,7,PERIMETER_MID_ZN_2 ZN,Zone Air Relative Humidity [%] !Daily [Value,Min,Hour,Minute,Max,Hour,Minute]
1378,1,PERIMETER_MID_ZN_3 ZN,Zone Air Temperature [C] !Hourly
1379,7,PERIMETER_MID_ZN_3 ZN,Zone Air Relative Humidity [%] !Daily [Value,Min,Hour,Minute,Max,Hour,Minute]
1418,1,PERIMETER_MID_ZN_4 ZN,Zone Air Temperature [C] !Hourly
1419,7,PERIMETER_MID_ZN_4 ZN,Zone Air Relative Humidity [%] !Daily [Value,Min,Hour,Minute,Max,Hour,Minute]
1458,1,PERIMETER_TOP_ZN_1 ZN,Zone Air Temperature [C] !Hourly
1459,7,PERIMETER_TOP_ZN_1 ZN,Zone Air Relative Humidity [%] !Daily [Value,Min,Hour,Minute,Max,Hour,Minute]
1498,1,PERIMETER_TOP_ZN_2 ZN,Zone Air Temperature [C] !Hourly
1499,7,PERIMETER_TOP_ZN_2 ZN,Zone Air Relative Humidity [%] !Daily [Value,Min,Hour,Minute,Max,Hour,Minute]
1538,1,PERIMETER_TOP_ZN_3 ZN,Zone Air Temperature [C] !Hourly
1539,7,PERIMETER_TOP_ZN_3 ZN,Zone Air Relative Humidity [%] !Daily [Value,Min,Hour,Minute,Max,Hour,Minute]
1578,1,PERIMETER_TOP_ZN_4 ZN,Zone Air Temperature [C] !Hourly
1579,7,PERIMETER_TOP_ZN_4 ZN,Zone Air Relative Humidity [%] !Daily [Value,Min,Hour,Minute,Max,Hour,Minute]
1618,1,TOPFLOOR_PLENUM ZN,Zone Air Temperature [C] !Hourly
1619,7,TOPFLOOR_PLENUM ZN,Zone Air Relative Humidity [%] !Daily [Value,Min,Hour,Minute,Max,Hour,Minute]
10,1,Electricity:Facility [J] !TimeStep
704,1,Gas:Facility [J] !TimeStep
End of Data Dictionary
1,HOUSTON BUSH INTERCONTINENTAL ANN CLG .4% CONDNS DB=>MWB,  30.00, -95.37,  -6.00,  29.00
2,1, 7,21, 0, 1, 0.00,10.00,SummerDesignDay
8,22.55515166200166
10,82991254.84748268
704,766168.196131842
2,1, 7,21, 0, 1,10.00,20.00,SummerDesignDay
8,22.526850134727679
10,83011268.94756195
704,766168.196131842
2,1, 7,21, 0, 1,20.00,30.00,SummerDesignDay
8,22.498517194785639
10,83031721.1160843
704,766168.196131842
2,1, 7,21, 0, 1,30.00,40.00,SummerDesignDay
8,22.47015203492528
10,83048839.28121987
704,766168.196131842
2,1, 7,21, 0, 1,40.00,50.00,SummerDesignDay
8,22.441756223232479
10,83067584.93139583
704,766168.196131842
2,1, 7,21, 0, 1,50.00,60.00,SummerDesignDay
8,22.41333327947745
10,83083862.07131112
704,766168.196131842
2,1, 7,21, 0, 1, 0.00,60.00,SummerDesignDay
938,26.701713188985499
978,26.700314431349314
1018,26.70028548838761
1058,27.121941685912949
1098,27.109483304143198
1138,26.497624532791578
1178,26.52480430876783
1218,26.47264668912361
1258,26.69828004072828
1298,26.699622887256724
1338,26.699775751812028
1378,26.69958459935204
1418,26.699780521357395
1458,26.6995232452014
1498,26.69970552809723
1538,26.69947157454625
1578,26.699699585968987
1618,26.99583840813915
2,1, 7,21, 0, 2, 0.00,10.00,SummerDesignDay
8,22.394357103043434
10,83101052.90091414
704,766168.196131842
2,1, 7,21, 0, 2,10.00,20.00,SummerDesignDay
8,22.375371366599194
10,83116426.99148536
704,766168.196131842
2,1, 7,21, 0, 2,20.00,30.00,SummerDesignDay
8,22.356372115234558
10,83132519.896177
704,766168.196131842
2,1, 7,21, 0, 2,30.00,40.00,SummerDesignDay
8,22.33736295549441
10,83146122.45440209
704,766168.196131842
2,1, 7,21, 0, 2,40.00,50.00,SummerDesignDay
8,22.31833500798559
10,83158159.74187401
704,766168.196131842
2,1, 7,21, 0, 2,50.00,60.00,SummerDesignDay
8,22.299293004300805
10,83169669.76699713
704,766168.196131842
2,1, 7,21, 0, 2, 0.00,60.00,SummerDesignDay
938,26.701629141992503
978,26.70027820585997
1018,26.700289049466865
1058,27.17211944498659
1098,27.154902595901566
1138,26.540998881969313
1178,26.563779315434564
1218,26.514184273917484
1258,26.699727904573228
1298,26.699486490754823
1338,26.69961028321231
1378,26.699562252169959
1418,26.699563700236529
1458,26.699410985936784
1498,26.69946270235818
1538,26.699469829497507
1578,26.69946365062047
1618,27.022924692614624
2,1, 7,21, 0, 3, 0.00,10.00,SummerDesignDay
8,22.28500102240784
10,83181321.52053023
704,766168.196131842
2,1, 7,21, 0, 3,10.00,20.00,SummerDesignDay
8,22.27070533801161
10,83192932.68632391
704,766168.196131842
2,1, 7,21, 0, 3,20.00,30.00,SummerDesignDay
8,22.256397908168304
10,83203945.45180828
704,766168.196131842
2,1, 7,21, 0, 3,30.00,40.00,SummerDesignDay
8,22.24208582934788
10,83214601.67205975
704,766168.196131842
2,1, 7,21, 0, 3,40.00,50.00,SummerDesignDay
8,22.227762416136
10,83224835.16187069
704,766168.196131842
2,1, 7,21, 0, 3,50.00,60.00,SummerDesignDay
8,22.213434369456495
10,83234690.3279435
704,766168.196131842
2,1, 7,21, 0, 3, 0.00,60.00,SummerDesignDay
938,26.701575848046674
978,26.700272386934818
1018,26.700285151165095
1058,27.218018199637894
1098,27.196163617820134
1138,26.562253180929159
1178,26.580478331525247
1218,26.534978480887874
1258,26.699632185583608
1298,26.699514996740665
1338,26.699458852143324
1378,26.699536529752494
1418,26.69928569977333
1458,26.699427530396837
1498,26.699330148786488
1538,26.699441719174
1578,26.699276392290146
1618,27.0162564397553
2,1, 7,21, 0, 4, 0.00,10.00,SummerDesignDay
8,22.199094133336208
10,83244208.8621482
704,766168.196131842
2,1, 7,21, 0, 4,10.00,20.00,SummerDesignDay
8,22.184746117844438
10,83253385.11255062
704,766168.196131842
2,1, 7,21, 0, 4,20.00,30.00,SummerDesignDay
8,22.170394208674524
10,83262250.55467487
704,766168.196131842
2,1, 7,21, 0, 4,30.00,40.00,SummerDesignDay
8,22.156029943052258
10,83270791.51456443
704,766168.196131842
2,1, 7,21, 0, 4,40.00,50.00,SummerDesignDay
8,22.14166229604138
10,83279040.48837096
704,766168.196131842
2,1, 7,21, 0, 4,50.00,60.00,SummerDesignDay
8,22.127282061051376
10,83286952.68192736
704,766168.196131842
2,1, 7,21, 0, 4, 0.00,60.00,SummerDesignDay
938,26.701537181510206
978,26.700273548185739
1018,26.70028306998486
1058,27.26185446383369
1098,27.23557650183696
1138,26.57540348219885
1178,26.589048297244874
1218,26.5484289248682
1258,26.699585797059656
1298,26.699518471666577
1338,26.699384211471796
1378,26.699540712919043
1418,26.699175487858807
1458,26.69942246254638
1498,26.699274470132406
1538,26.699436331046149
1578,26.699273621040047
1618,27.0002536769971
2,1, 7,21, 0, 5, 0.00,10.00,SummerDesignDay
8,22.117693369939994
10,83295390.00948036
704,766168.196131842
2,1, 7,21, 0, 5,10.00,20.00,SummerDesignDay
8,22.108096391308693
10,83303850.68443716
704,766168.196131842
2,1, 7,21, 0, 5,20.00,30.00,SummerDesignDay
8,22.098501081595648
10,83312174.33231449
704,766168.196131842
2,1, 7,21, 0, 5,30.00,40.00,SummerDesignDay
8,22.08890192228894
10,83320272.60793975
704,766168.196131842
2,1, 7,21, 0, 5,40.00,50.00,SummerDesignDay
8,22.07929455666112
10,83325732.36089382
704,766168.196131842
2,1, 7,21, 0, 5,50.00,60.00,SummerDesignDay
8,22.06968746468033
10,83333914.1898483
704,766168.196131842
2,1, 7,21, 0, 5, 0.00,60.00,SummerDesignDay
938,26.701509870708376
978,26.700305694588253
1018,26.70030387092531
1058,27.303847112918814
1098,27.2733459312351
1138,26.585316931136334
1178,26.59464154249892
1218,26.559013699250757
1258,26.69956602511815
1298,26.699532052747768
1338,26.699410879841407
1378,26.69955510488202
1418,26.699200283160079
1458,26.699423987045284
1498,26.69924847082758
1538,26.69943805475548
1578,26.69933460854997
1618,26.98245419419681
2,1, 7,21, 0, 6, 0.00,10.00,SummerDesignDay
8,22.07929455666112
10,92334766.14637584
704,766168.196131842
2,1, 7,21, 0, 6,10.00,20.00,SummerDesignDay
8,22.08890192228894
10,84020270.29257873
704,766168.196131842
2,1, 7,21, 0, 6,20.00,30.00,SummerDesignDay
8,22.098501081595648
10,88703848.63293743
704,766168.196131842
2,1, 7,21, 0, 6,30.00,40.00,SummerDesignDay
8,22.108096391308693
10,84271564.27165696
704,766168.196131842
2,1, 7,21, 0, 6,40.00,50.00,SummerDesignDay
8,22.117693369939994
10,83405545.31908155
704,766168.196131842
2,1, 7,21, 0, 6,50.00,60.00,SummerDesignDay
8,22.127282061051376
10,81545924.13924068
704,766168.196131842
2,1, 7,21, 0, 6, 0.00,60.00,SummerDesignDay
938,25.716996622083504
978,25.717618439278654
1018,25.716261684419007
1058,27.305884760050927
1098,27.267480037617927
1138,25.667680879886928
1178,25.66894161292637
1218,25.67874659230272
1258,25.669056648557434
1298,25.69737639091437
1338,25.695260990485577
1378,25.706322631570044
1418,25.69596311616982
1458,25.695288448308874
1498,25.69491989174861
1538,25.696009775691384
1578,25.695695391984576
1618,26.89734421905203
2,1, 7,21, 0, 7, 0.00,10.00,SummerDesignDay
8,22.16081788128382
10,90406795.83825852
704,766168.196131842
2,1, 7,21, 0, 7,10.00,20.00,SummerDesignDay
8,22.194314060674317
10,84824355.00934316
704,766168.196131842
2,1, 7,21, 0, 7,20.00,30.00,SummerDesignDay
8,22.227762416136
10,88129051.1310245
704,766168.196131842
2,1, 7,21, 0, 7,30.00,40.00,SummerDesignDay
8,22.261166449857777
10,87108089.38676547
704,766168.196131842
2,1, 7,21, 0, 7,40.00,50.00,SummerDesignDay
8,22.2945317589312
10,87069808.48326244
704,766168.196131842
2,1, 7,21, 0, 7,50.00,60.00,SummerDesignDay
8,22.32784836437558
10,87207477.17096333
704,766168.196131842
2,1, 7,21, 0, 7, 0.00,60.00,SummerDesignDay
938,25.01215902722681
978,25.01306240807391
1018,25.010558714730157
1058,27.280467285268967
1098,27.23932455508641
1138,25.003627343802007
1178,25.004126666318674
1218,25.00354674349606
1258,25.00354301949316
1298,25.004017368972229
1338,25.004596224245558
1378,25.004619654474678
1418,25.0038982781806
1458,25.004203534538538
1498,25.004623912284939
1538,25.004088425852577
1578,25.003929028305206
1618,26.797669413785586
2,1, 7,21, 0, 8, 0.00,10.00,SummerDesignDay
8,22.408583080392626
10,99489709.7321449
704,766168.196131842
2,1, 7,21, 0, 8,10.00,20.00,SummerDesignDay
8,22.48906704679055
10,97806870.75732945
704,766168.196131842
2,1, 7,21, 0, 8,20.00,30.00,SummerDesignDay
8,22.569293147585947
10,97006827.7575982
704,766168.196131842
2,1, 7,21, 0, 8,30.00,40.00,SummerDesignDay
8,22.649266945139865
10,95862103.56696479
704,766168.196131842
2,1, 7,21, 0, 8,40.00,50.00,SummerDesignDay
8,22.72898934285821
10,95910852.46688144
704,766168.196131842
2,1, 7,21, 0, 8,50.00,60.00,SummerDesignDay
8,22.80846232135329
10,95815199.48550008
704,766168.196131842
2,1, 7,21, 0, 8, 0.00,60.00,SummerDesignDay
938,24.071563975569587
978,24.07312389458212
1018,24.058679801885007
1058,27.23812542279398
1098,27.210390537323048
1138,24.02342503481233
1178,24.025394086846988
1218,24.048242411426029
1258,24.007026582378136
1298,24.023937476146487
1338,24.02627133538191
1378,24.051306580001655
1418,24.00878961781774
1458,24.016797823756844
1498,24.024111245261154
1538,24.03168014491183
1578,24.0076400643084
1618,26.938716677613639
2,1, 7,21, 0, 9, 0.00,10.00,SummerDesignDay
8,22.89699452446473
10,95810063.02379172
704,766168.196131842
2,1, 7,21, 0, 9,10.00,20.00,SummerDesignDay
8,22.985217781404136
10,95848736.74060403
704,766168.196131842
2,1, 7,21, 0, 9,20.00,30.00,SummerDesignDay
8,23.073130643143519
10,95916218.20216058
704,766168.196131842
2,1, 7,21, 0, 9,30.00,40.00,SummerDesignDay
8,23.160743471259779
10,96006575.19191422
704,766168.196131842
2,1, 7,21, 0, 9,40.00,50.00,SummerDesignDay
8,23.248048421233255
10,96111660.69601344
704,766168.196131842
2,1, 7,21, 0, 9,50.00,60.00,SummerDesignDay
8,23.33505738606609
10,96227137.79457344
704,766168.196131842
2,1, 7,21, 0, 9, 0.00,60.00,SummerDesignDay
938,24.000821086305323
978,24.000932795365345
1018,24.001070090098695
1058,27.210867007390168
1098,27.189476699331665
1138,24.0008440955633
1178,24.00058949086312
1218,24.00120698698649
1258,24.000924190700589
1298,24.000682001327708
1338,24.000577517271286
1378,24.000989712529216
1418,24.000793783569735
1458,24.000981059623869
1498,24.00059329963736
1538,24.000541150989006
1578,24.00081589872937
1618,27.469004263083478
2,1, 7,21, 0,10, 0.00,10.00,SummerDesignDay
8,23.41265100341451
10,96338208.87027203
704,766168.196131842
2,1, 7,21, 0,10,10.00,20.00,SummerDesignDay
8,23.490006602427905
10,96402507.3065504
704,766168.196131842
2,1, 7,21, 0,10,20.00,30.00,SummerDesignDay
8,23.567129080603008
10,96569135.29983507
704,766168.196131842
2,1, 7,21, 0,10,30.00,40.00,SummerDesignDay
8,23.64401189423285
10,96666258.80508547
704,766168.196131842
2,1, 7,21, 0,10,40.00,50.00,SummerDesignDay
8,23.720659712070007
10,96789955.04882877
704,766168.196131842
2,1, 7,21, 0,10,50.00,60.00,SummerDesignDay
8,23.797074644998138
10,96896248.59654729
704,766168.196131842
2,1, 7,21, 0,10, 0.00,60.00,SummerDesignDay
938,24.00086302715741
978,24.001033430793198
1018,24.00097447267703
1058,27.234357090668146
1098,27.20985623902223
1138,24.000654835912106
1178,24.000608020083165
1218,24.00105296588254
1258,24.000844218666918
1298,24.000802883458705
1338,24.000592498401713
1378,24.000884570391109
1418,24.00117223500233
1458,24.000702288901313
1498,24.0005715794408
1538,24.0010951854247
1578,24.000935298723094
1618,28.29072928410766
2,1, 7,21, 0,11, 0.00,10.00,SummerDesignDay
8,23.864307802665026
10,97078034.69457262
704,766168.196131842
2,1, 7,21, 0,11,10.00,20.00,SummerDesignDay
8,23.93136184762686
10,97169072.99126463
704,766168.196131842
2,1, 7,21, 0,11,20.00,30.00,SummerDesignDay
8,23.998236689043716
10,97270080.47524695
704,766168.196131842
2,1, 7,21, 0,11,30.00,40.00,SummerDesignDay
8,24.064933161106909
10,97425254.03627877
704,766168.196131842
2,1, 7,21, 0,11,40.00,50.00,SummerDesignDay
8,24.13145676358548
10,97547599.14768552
704,766168.196131842
2,1, 7,21, 0,11,50.00,60.00,SummerDesignDay
8,24.197781774698226
10,97632581.53804569
704,766168.196131842
2,1, 7,21, 0,11, 0.00,60.00,SummerDesignDay
938,24.00090367901771
978,24.0011128584761
1018,24.00084727015107
1058,27.248398234378077
1098,27.222544935810196
1138,24.001054589705448
1178,24.001082625545679
1218,24.00079635344792
1258,24.000816479353316
1298,24.00122407544733
1338,24.000993367786298
1378,24.000707375903845
1418,24.000651898683384
1458,24.001015384858705
1498,24.00083555456394
1538,24.001020626101349
1578,24.00077690923305
1618,29.120069501200719
2,1, 7,21, 0,12, 0.00,10.00,SummerDesignDay
8,24.241912042460787
10,97652929.93020965
704,766168.196131842
2,1, 7,21, 0,12,10.00,20.00,SummerDesignDay
8,24.285965402847194
10,97700169.12012069
704,766168.196131842
2,1, 7,21, 0,12,20.00,30.00,SummerDesignDay
8,24.3299406594327
10,97699739.77690129
704,766168.196131842
2,1, 7,21, 0,12,30.00,40.00,SummerDesignDay
8,24.37383792896479
10,97589232.94918378
704,766168.196131842
2,1, 7,21, 0,12,40.00,50.00,SummerDesignDay
8,24.417658514747676
10,97550078.41270675
704,766168.196131842
2,1, 7,21, 0,12,50.00,60.00,SummerDesignDay
8,24.461402047458465
10,97433803.42409744
704,766168.196131842
2,1, 7,21, 0,12, 0.00,60.00,SummerDesignDay
938,24.000944098917264
978,24.001189972441428
1018,24.000749160729609
1058,27.25126283239234
1098,27.225949013311195
1138,24.000801405206589
1178,24.001058676665008
1218,24.000703543320545
1258,24.000831696168615
1298,24.000700076721757
1338,24.00115107448435
1378,24.000644970109204
1418,24.00055961924923
1458,24.000800675300245
1498,24.001444537715867
1538,24.000768177490959
1578,24.000559091423655
1618,29.822490367479206
2,1, 7,21, 0,13, 0.00,10.00,SummerDesignDay
8,24.4963482406198
10,97339719.85583298
704,766168.196131842
2,1, 7,21, 0,13,10.00,20.00,SummerDesignDay
8,24.531240281686157
10,97286991.52499126
704,766168.196131842
2,1, 7,21, 0,13,20.00,30.00,SummerDesignDay
8,24.566071841916153
10,97296722.46859347
704,766168.196131842
2,1, 7,21, 0,13,30.00,40.00,SummerDesignDay
8,24.60086617144924
10,97323939.04531153
704,766168.196131842
2,1, 7,21, 0,13,40.00,50.00,SummerDesignDay
8,24.63561727012247
10,97473518.76273437
704,766168.196131842
2,1, 7,21, 0,13,50.00,60.00,SummerDesignDay
8,24.67031466724826
10,97663139.41359301
704,766168.196131842
2,1, 7,21, 0,13, 0.00,60.00,SummerDesignDay
938,24.000986110262159
978,24.001268865186974
1018,24.00069113628173
1058,27.24476635438136
1098,27.222609656457434
1138,24.000595682427869
1178,24.001589535123587
1218,24.000659390218364
1258,24.00092227570663
1298,24.000572229304767
1338,24.001581016094236
1378,24.000615529678755
1418,24.000539726978557
1458,24.000582739344556
1498,24.000993296227848
1538,24.00065386126546
1578,24.00081569850437
1618,30.320278784183136
2,1, 7,21, 0,14, 0.00,10.00,SummerDesignDay
8,24.691975315719227
10,97844522.61465721
704,766168.196131842
2,1, 7,21, 0,14,10.00,20.00,SummerDesignDay
8,24.713616857955605
10,98026644.59642147
704,766168.196131842
2,1, 7,21, 0,14,20.00,30.00,SummerDesignDay
8,24.735239492462396
10,98203775.85203247
704,766168.196131842
2,1, 7,21, 0,14,30.00,40.00,SummerDesignDay
8,24.75684358990104
10,98376345.05065052
704,766168.196131842
2,1, 7,21, 0,14,40.00,50.00,SummerDesignDay
8,24.778428575760857
10,98539454.66092246
704,766168.196131842
2,1, 7,21, 0,14,50.00,60.00,SummerDesignDay
8,24.79999519699483
10,98692596.01340707
704,766168.196131842
2,1, 7,21, 0,14, 0.00,60.00,SummerDesignDay
938,24.00102105067592
978,24.001334043284137
1018,24.000660063403985
1058,27.237148576655668
1098,27.221042564150819
1138,24.000596342805566
1178,24.000571122916225
1218,24.000604678009088
1258,24.001108300538374
1298,24.000576783128353
1338,24.00188868491362
1378,24.000577705147703
1418,24.001407743926518
1458,24.00055825014789
1498,24.00113943568474
1538,24.00057870978054
1578,24.00124450076252
1618,30.61641701979224
2,1, 7,21, 0,15, 0.00,10.00,SummerDesignDay
8,24.79999519699483
10,98801444.7318116
704,766168.196131842
2,1, 7,21, 0,15,10.00,20.00,SummerDesignDay
8,24.79999519699483
10,98880427.3630879
704,766168.196131842
2,1, 7,21, 0,15,20.00,30.00,SummerDesignDay
8,24.79999519699483
10,98917294.17161088
704,766168.196131842
2,1, 7,21, 0,15,30.00,40.00,SummerDesignDay
8,24.79999519699483
10,98983379.55101075
704,766168.196131842
2,1, 7,21, 0,15,40.00,50.00,SummerDesignDay
8,24.79999519699483
10,99113283.2304308
704,766168.196131842
2,1, 7,21, 0,15,50.00,60.00,SummerDesignDay
8,24.79999519699483
10,99282909.39075129
704,766168.196131842
2,1, 7,21, 0,15, 0.00,60.00,SummerDesignDay
938,24.001045372432104
978,24.001380882165575
1018,24.000649811842437
1058,27.238294043956804
1098,27.230056633679003
1138,24.00074603579149
1178,24.000557332503737
1218,24.000592987597185
1258,24.000873794539005
1298,24.000694117150677
1338,24.002113908457166
1378,24.00057163388521
1418,24.00088989131609
1458,24.000634152404513
1498,24.00121955837996
1538,24.00055863244225
1578,24.000833763272046
1618,30.731046143837589
2,1, 7,21, 0,16, 0.00,10.00,SummerDesignDay
8,24.774109911402314
10,99304667.10268285
704,766168.196131842
2,1, 7,21, 0,16,10.00,20.00,SummerDesignDay
8,24.748193058907299
10,99304234.9249173
704,766168.196131842
2,1, 7,21, 0,16,20.00,30.00,SummerDesignDay
8,24.72226641808931
10,99278799.46203228
704,766168.196131842
2,1, 7,21, 0,16,30.00,40.00,SummerDesignDay
8,24.69629573485237
10,99230864.05638846
704,766168.196131842
2,1, 7,21, 0,16,40.00,50.00,SummerDesignDay
8,24.67031466724826
10,99183296.39057695
704,766168.196131842
2,1, 7,21, 0,16,50.00,60.00,SummerDesignDay
8,24.64429386676247
10,99137000.93136214
704,766168.196131842
2,1, 7,21, 0,16, 0.00,60.00,SummerDesignDay
938,24.00106866773366
978,24.0014257746537
1018,24.000668194043987
1058,27.24431994206023
1098,27.24421402080645
1138,24.001129561043958
1178,24.00055891174121
1218,24.00068159360735
1258,24.00074402724776
1298,24.000994828859576
1338,24.001236851643026
1378,24.00064170829557
1418,24.0007045443365
1458,24.000862541892329
1498,24.001464913988728
1538,24.00061595818417
1578,24.000663778548974
1618,30.645925676460775
2,1, 7,21, 0,17, 0.00,10.00,SummerDesignDay
8,24.609555269533723
10,99065416.87340577
704,766168.196131842
2,1, 7,21, 0,17,10.00,20.00,SummerDesignDay
8,24.574785653419665
10,98979144.3991052
704,766168.196131842
2,1, 7,21, 0,17,20.00,30.00,SummerDesignDay
8,24.53995372449976
10,98878011.2806897
704,766168.196131842
2,1, 7,21, 0,17,30.00,40.00,SummerDesignDay
8,24.505073792047609
10,98759925.2685089
704,766168.196131842
2,1, 7,21, 0,17,40.00,50.00,SummerDesignDay
8,24.470140173703635
10,98675299.34247245
704,766168.196131842
2,1, 7,21, 0,17,50.00,60.00,SummerDesignDay
8,24.435179734761314
10,98674877.86214008
704,766168.196131842
2,1, 7,21, 0,17, 0.00,60.00,SummerDesignDay
938,24.001095298308898
978,24.001310768196587
1018,24.00072462459582
1058,27.241829008985353
1098,27.24808086802328
1138,24.00113901287368
1178,24.000569227035244
1218,24.00067821750389
1258,24.000562470306478
1298,24.00136184115915
1338,24.00057307613565
1378,24.000642646191989
1418,24.00055480890867
1458,24.001195863468174
1498,24.001949445869639
1538,24.00063929378744
1578,24.00055139737742
1618,30.34008336606094
2,1, 7,21, 0,18, 0.00,10.00,SummerDesignDay
8,24.391385151553675
10,98361992.63209372
704,766168.196131842
2,1, 7,21, 0,18,10.00,20.00,SummerDesignDay
8,24.347518457299747
10,98039968.41952856
704,766168.196131842
2,1, 7,21, 0,18,20.00,30.00,SummerDesignDay
8,24.30357424691312
10,97745940.55762442
704,766168.196131842
2,1, 7,21, 0,18,30.00,40.00,SummerDesignDay
8,24.259552332546677
10,97462561.72746678
704,766168.196131842
2,1, 7,21, 0,18,40.00,50.00,SummerDesignDay
8,24.215452456223976
10,97077535.82909583
704,766168.196131842
2,1, 7,21, 0,18,50.00,60.00,SummerDesignDay
8,24.171275219179657
10,96730497.86803551
704,766168.196131842
2,1, 7,21, 0,18, 0.00,60.00,SummerDesignDay
938,24.001122827917134
978,24.000659742039934
1018,24.000830475600709
1058,27.223511059019875
1098,27.23487881901829
1138,24.000635260036579
1178,24.000547545858834
1218,24.000623342808138
1258,24.000861324491639
1298,24.00090404133249
1338,24.00058274626353
1378,24.000605044825155
1418,24.000815253342024
1458,24.001299975441357
1498,24.000942662232366
1538,24.000652831646748
1578,24.000828270410268
1618,29.830119646751116
2,1, 7,21, 0,19, 0.00,10.00,SummerDesignDay
8,24.104862614075448
10,96232243.83850192
704,766168.196131842
2,1, 7,21, 0,19,10.00,20.00,SummerDesignDay
8,24.038272536484607
10,96099359.5548849
704,766168.196131842
2,1, 7,21, 0,19,20.00,30.00,SummerDesignDay
8,23.971500049970403
10,96045425.87742622
704,766168.196131842
2,1, 7,21, 0,19,30.00,40.00,SummerDesignDay
8,23.90455374910954
10,95856970.07683514
704,766168.196131842
2,1, 7,21, 0,19,40.00,50.00,SummerDesignDay
8,23.837428259103495
10,95963360.09210141
704,766168.196131842
2,1, 7,21, 0,19,50.00,60.00,SummerDesignDay
8,23.770122566836709
10,97014349.85759939
704,766168.196131842
2,1, 7,21, 0,19, 0.00,60.00,SummerDesignDay
938,24.001156731796376
978,24.00061020459614
1018,24.001016876229817
1058,27.180892330254708
1098,27.194867158287108
1138,24.0010250887632
1178,24.000840922404
1218,24.000873156612287
1258,24.001307287983268
1298,24.000789463046499
1338,24.000640022575426
1378,24.000977944641645
1418,24.00136066863109
1458,24.0007797238234
1498,24.000583666597679
1538,24.00115254641246
1578,24.001386965747714
1618,29.138882749197717
2,1, 7,21, 0,20, 0.00,10.00,SummerDesignDay
8,23.720659712070007
10,98143095.71464025
704,766168.196131842
2,1, 7,21, 0,20,10.00,20.00,SummerDesignDay
8,23.671090474146888
10,102416718.3210191
704,766168.196131842
2,1, 7,21, 0,20,20.00,30.00,SummerDesignDay
8,23.621423087029166
10,102169283.38863497
704,766168.196131842
2,1, 7,21, 0,20,30.00,40.00,SummerDesignDay
8,23.57165702277583
10,101934117.65959759
704,766168.196131842
2,1, 7,21, 0,20,40.00,50.00,SummerDesignDay
8,23.52179311411177
10,101641468.89049219
704,766168.196131842
2,1, 7,21, 0,20,50.00,60.00,SummerDesignDay
8,23.47182921589996
10,101384449.34018587
704,766168.196131842
2,1, 7,21, 0,20, 0.00,60.00,SummerDesignDay
938,24.001219901564583
978,24.000637332103975
1018,24.001331908646667
1058,27.10752874304373
1098,27.121834845275289
1138,24.00126800673671
1178,24.0010638344844
1218,24.00065367382355
1258,24.000663108053869
1298,24.001042801677415
1338,24.00078460476719
1378,24.000546413348279
1418,24.000716193085677
1458,24.00116880965565
1498,24.00054711407942
1538,24.000642128301008
1578,24.000726867679704
1618,28.276003349278939
2,1, 7,21, 0,21, 0.00,10.00,SummerDesignDay
8,23.430874963131669
10,101447803.24967294
704,766168.196131842
2,1, 7,21, 0,21,10.00,20.00,SummerDesignDay
8,23.38985327153428
10,101099282.4869649
704,766168.196131842
2,1, 7,21, 0,21,20.00,30.00,SummerDesignDay
8,23.34876959875807
10,100793710.35246472
704,766168.196131842
2,1, 7,21, 0,21,30.00,40.00,SummerDesignDay
8,23.3076141406866
10,100518193.60620357
704,766168.196131842
2,1, 7,21, 0,21,40.00,50.00,SummerDesignDay
8,23.266392150200095
10,100281957.61050304
704,766168.196131842
2,1, 7,21, 0,21,50.00,60.00,SummerDesignDay
8,23.225101800123516
10,100078961.04355802
704,766168.196131842
2,1, 7,21, 0,21, 0.00,60.00,SummerDesignDay
938,24.001276923221174
978,24.000644551026445
1018,24.000491220274929
1058,27.015501326794348
1098,27.029214480238207
1138,24.000452956033504
1178,24.0012903608303
1218,24.000969685691236
1258,24.000981338784898
1298,24.001305015538319
1338,24.00089930645392
1378,24.000767615882365
1418,24.000884334825814
1458,24.001466893340767
1498,24.000789700691376
1538,24.00104775886938
1578,24.00067196440125
1618,27.483205826755378
2,1, 7,21, 0,22, 0.00,10.00,SummerDesignDay
8,23.183748128549767
10,99896230.61421104
704,766168.196131842
2,1, 7,21, 0,22,10.00,20.00,SummerDesignDay
8,23.14232268871898
10,99729368.97688948
704,766168.196131842
2,1, 7,21, 0,22,20.00,30.00,SummerDesignDay
8,23.10082967213209
10,99573867.44933246
704,766168.196131842
2,1, 7,21, 0,22,30.00,40.00,SummerDesignDay
8,23.059271895686434
10,99426329.57857646
704,766168.196131842
2,1, 7,21, 0,22,40.00,50.00,SummerDesignDay
8,23.01764200690935
10,99285688.95224379
704,766168.196131842
2,1, 7,21, 0,22,50.00,60.00,SummerDesignDay
8,22.975943224748894
10,99150662.96869184
704,766168.196131842
2,1, 7,21, 0,22, 0.00,60.00,SummerDesignDay
938,24.001321743598898
978,24.00065132838178
1018,24.000653171389375
1058,26.927532502311619
1098,26.937934467834269
1138,24.000422177474986
1178,24.00123757562802
1218,24.00125619687866
1258,24.001320307284016
1298,24.00141814762515
1338,24.00099435404869
1378,24.000937119501275
1418,24.000918974852735
1458,24.000500563858308
1498,24.00094758741082
1538,24.001466562773734
1578,24.001006801858453
1618,26.92141446009927
2,1, 7,21, 0,23, 0.00,10.00,SummerDesignDay
8,22.943465253097018
10,79447435.67400028
704,766168.196131842
2,1, 7,21, 0,23,10.00,20.00,SummerDesignDay
8,22.91094626295795
10,81863302.8606831
704,766168.196131842
2,1, 7,21, 0,23,20.00,30.00,SummerDesignDay
8,22.878381130741823
10,82241202.10587694
704,766168.196131842
2,1, 7,21, 0,23,30.00,40.00,SummerDesignDay
8,22.845777936798176
10,83544537.51401399
704,766168.196131842
2,1, 7,21, 0,23,40.00,50.00,SummerDesignDay
8,22.813132938530747
10,84126201.75744818
704,766168.196131842
2,1, 7,21, 0,23,50.00,60.00,SummerDesignDay
8,22.780441618581024
10,84392323.06666942
704,766168.196131842
2,1, 7,21, 0,23, 0.00,60.00,SummerDesignDay
938,26.492197119078396
978,25.997489968998797
1018,26.031537841686505
1058,26.944979817420334
1098,26.935138706430803
1138,25.65033515425708
1178,25.684915250031357
1218,25.63658676709197
1258,25.86441908263225
1298,26.085403710762468
1338,26.11642735357991
1378,26.078825322846098
1418,26.21590889917212
1458,26.11490911044315
1498,26.14222030164235
1538,26.108988268080564
1578,26.23429631077776
1618,26.70101929285339
2,1, 7,21, 0,24, 0.00,10.00,SummerDesignDay
8,22.7477123587852
10,84454271.05335219
704,766168.196131842
2,1, 7,21, 0,24,10.00,20.00,SummerDesignDay
8,22.7149412932349
10,84532003.51128848
704,766168.196131842
2,1, 7,21, 0,24,20.00,30.00,SummerDesignDay
8,22.682122705825344
10,84591271.44112112
704,766168.196131842
2,1, 7,21, 0,24,30.00,40.00,SummerDesignDay
8,22.649266945139865
10,84629561.54424443
704,766168.196131842
2,1, 7,21, 0,24,40.00,50.00,SummerDesignDay
8,22.616367640006226
10,84661303.12786158
704,766168.196131842
2,1, 7,21, 0,24,50.00,60.00,SummerDesignDay
8,22.58342175892009