Program Version,EnergyPlus, Version 9.1.0-08d2e308bb, YMD=2019.04.09 23:12
1,5,Environment Title[],Latitude[deg],Longitude[deg],Time Zone[],Elevation[m]
2,8,Day of Simulation[],Month[],Day of Month[],DST Indicator[1=yes 0=no],Hour[],StartMinute[],EndMinute[],DayType
3,5,Cumulative Day of Simulation[],Month[],Day of Month[],DST Indicator[1=yes 0=no],DayType  ! When Daily Report Variables Requested
4,2,Cumulative Days of Simulation[],Month[]  ! When Monthly Report Variables Requested
5,1,Cumulative Days of Simulation[] ! When Run Period Report Variables Requested
6,1,Calendar Year of Simulation[] ! When Annual Report Variables Requested
7,9,Environment,Site Outdoor Air Drybulb Temperature [C] !Monthly [Value,Min,Day,Hour,Minute,Max,Day,Hour,Minute]
8,1,Environment,Site Outdoor Air Wetbulb Temperature [C] !TimeStep
938,1,CORE_BOTTOM ZN,Zone Air Temperature [C] !Hourly
939,7,CORE_BOTTOM ZN,Zone Air Relative Humidity [%] !Daily [Value,Min,Hour,Minute,Max,Hour,Minute]
978,1,CORE_MID ZN,Zone Air Temperature [C] !Hourly
979,7,CORE_MID ZN,Zone Air Relative Humidity [%] !Daily [Value,Min,Hour,Minute,Max,Hour,Minute]
1018,1,CORE_TOP ZN,Zone Air Temperature [C] !Hourly
1019,7,CORE_TOP ZN,Zone Air Relative Humidity [%] !Daily [Value,Min,Hour,Minute,Max,Hour,Minute]
1058,1,FIRSTFLOOR_PLENUM ZN,Zone Air Temperature [C] !Hourly
1059,7,FIRSTFLOOR_PLENUM ZN,Zone Air Relative Humidity [%] !Daily [Value,Min,Hour,Minute,Max,Hour,Minute]
1098,1,MIDFLOOR_PLENUM ZN,Zone Air Temperature [C] !Hourly
1099,7,MIDFLOOR_PLENUM ZN,Zone Air Relative Humidity [%] !Daily [Value,Min,Hour,Minute,Max,Hour,Minute]
1138,1,PERIMETER_BOT_ZN_1 ZN,Zone Air Temperature [C] !Hourly
1139,7,PERIMETER_BOT_ZN_1 ZN,Zone Air Relative Humidity [%] !Daily [Value,Min,Hour,Minute,Max,Hour,Minute]
1178,1,PERIMETER_BOT_ZN_2 ZN,Zone Air Temperature [C] !Hourly
1179,7,PERIMETER_BOT_ZN_2 ZN,Zone Air Relative Humidity [%] !Daily [Value,Min,Hour,Minute,Max,Hour,Minute]
1218,1,PERIMETER_BOT_ZN_3 ZN,Zone Air Temperature [C] !Hourly
1219,7,PERIMETER_BOT_ZN_3 ZN,Zone Air Relative Humidity [%] !Daily [Value,Min,Hour,Minute,Max,Hour,Minute]
1258,1,PERIMETER_BOT_ZN_4 ZN,Zone Air Temperature [C] !Hourly
1259,7,PERIMETER_BOT_ZN_4 ZN,Zone Air Relative Humidity [%] !Daily [Value,Min,Hour,Minute,Max,Hour,Minute]
1298,1,PERIMETER_MID_ZN_1 ZN,Zone Air Temperature [C] !Hourly
1299,7,PERIMETER_MID_ZN_1 ZN,Zone Air Relative Humidity [%] !Daily [Value,Min,Hour,Minute,Max,Hour,Minute]
1338,1,PERIMETER_MID_ZN_2 ZN,Zone Air Temperature [C] !Hourly
1339,7,PERIMETER_MID_ZN_2 ZN,Zone Air Relative Humidity [%] !Daily [Value,Min,Hour,Minute,Max,Hour,Minute]
1378,1,PERIMETER_MID_ZN_3 ZN,Zone Air Temperature [C] !Hourly
1379,7,PERIMETER_MID_ZN_3 ZN,Zone Air Relative Humidity [%] !Daily [Value,Min,Hour,Minute,Max,Hour,Minute]
1418,1,PERIMETER_MID_ZN_4 ZN,Zone Air Temperature [C] !Hourly
1419,7,PERIMETER_MID_ZN_4 ZN,Zone Air Relative Humidity [%] !Daily [Value,Min,Hour,Minute,Max,Hour,Minute]
1458,1,PERIMETER_TOP_ZN_1 ZN,Zone Air Temperature [C] !Hourly
1459,7,PERIMETER_TOP_ZN_1 ZN,Zone Air Relative Humidity [%] !Daily [Value,Min,Hour,Minute,Max,Hour,Minute]
1498,1,PERIMETER_TOP_ZN_2 ZN,Zone Air Temperature [C] !Hourly
1499,7,PERIMETER_TOP_ZN_2 ZN,Zone Air Relative Humidity [%] !Daily [Value,Min,Hour,Minute,Max,Hour,Minute]
1538,1,PERIMETER_TOP_ZN_3 ZN,Zone Air Temperature [C] !Hourly
1539,7,PERIMETER_TOP_ZN_3 ZN,Zone Air Relative Humidity [%] !Daily [Value,Min,Hour,Minute,Max,Hour,Minute]
1578,1,PERIMETER_TOP_ZN_4 ZN,Zone Air Temperature [C] !Hourly
1579,7,PERIMETER_TOP_ZN_4 ZN,Zone Air Relative Humidity [%] !Daily [Value,Min,Hour,Minute,Max,Hour,Minute]
1618,1,TOPFLOOR_PLENUM ZN,Zone Air Temperature [C] !Hourly
1619,7,TOPFLOOR_PLENUM ZN,Zone Air Relative Humidity [%] !Daily [Value,Min,Hour,Minute,Max,Hour,Minute]
10,1,Electricity:Facility [J] !TimeStep
704,1,Gas:Facility [J] !TimeStep
End of Data Dictionary
1,CHICAGO OHARE INTL AP ANN CLG .4% CONDNS DB=>MWB,  41.98, -87.92,  -6.00, 201.00
2,1, 7,21, 0, 1, 0.00,10.00,SummerDesignDay
8,21.292405530156598
10,77910304.52590363
704,766168.196131842
2,1, 7,21, 0, 1,10.00,20.00,SummerDesignDay
8,21.261960828085749
10,77912135.67950726
704,766168.196131842
2,1, 7,21, 0, 1,20.00,30.00,SummerDesignDay
8,21.2314850100004
10,77909750.0911014
704,766168.196131842
2,1, 7,21, 0, 1,30.00,40.00,SummerDesignDay
8,21.200957900234397
10,77903808.68958745
704,766168.196131842
2,1, 7,21, 0, 1,40.00,50.00,SummerDesignDay
8,21.170403647971147
10,77896227.77558628
704,766168.196131842
2,1, 7,21, 0, 1,50.00,60.00,SummerDesignDay
8,21.13981326633382
10,77885754.3279595
704,766168.196131842
2,1, 7,21, 0, 1, 0.00,60.00,SummerDesignDay
938,26.700020427883915
978,26.6999844618654
1018,26.699984875850914
1058,27.122397179658198
1098,27.109040076237279
1138,26.119367548332055
1178,25.49288107098663
1218,26.541050318027435
1258,25.769789359619467
1298,26.685008630734058
1338,26.106415106946696
1378,26.6994464284944
1418,26.413921495485185
1458,26.535258837302164
1498,26.046345281831603
1538,26.699379777997014
1578,26.268026833003348
1618,26.60827642034897
2,1, 7,21, 0, 2, 0.00,10.00,SummerDesignDay
8,21.11939664133838
10,77888870.14828928
704,766168.196131842
2,1, 7,21, 0, 2,10.00,20.00,SummerDesignDay
8,21.098968297299824
10,77899702.89231314
704,766168.196131842
2,1, 7,21, 0, 2,20.00,30.00,SummerDesignDay
8,21.078518554021277
10,77908824.74676036
704,766168.196131842
2,1, 7,21, 0, 2,30.00,40.00,SummerDesignDay
8,21.05805779383344
10,77916682.7640747
704,766168.196131842
2,1, 7,21, 0, 2,40.00,50.00,SummerDesignDay
8,21.0375756719312
10,77923185.41532484
704,766168.196131842
2,1, 7,21, 0, 2,50.00,60.00,SummerDesignDay
8,21.017081539415206
10,77928387.56911244
704,766168.196131842
2,1, 7,21, 0, 2, 0.00,60.00,SummerDesignDay
938,26.700013339521207
978,26.699997197066336
1018,26.6999971991949
1058,27.153913504300097
1098,27.137491556410525
1138,26.132932899736418
1178,25.490758760748198
1218,26.56765840976351
1258,25.736504766535508
1298,26.69939847388173
1338,26.12736494693971
1378,26.699393421055207
1418,26.406725146945676
1458,26.559239937411946
1498,26.054891279153357
1538,26.699321715033176
1578,26.246561037297608
1618,26.638234602885505
2,1, 7,21, 0, 3, 0.00,10.00,SummerDesignDay
8,21.00169730031167
10,77937713.44449608
704,766168.196131842
2,1, 7,21, 0, 3,10.00,20.00,SummerDesignDay
8,20.986303472921795
10,77946689.11312613
704,766168.196131842
2,1, 7,21, 0, 3,20.00,30.00,SummerDesignDay
8,20.970905447932056
10,77954846.56742557
704,766168.196131842
2,1, 7,21, 0, 3,30.00,40.00,SummerDesignDay
8,20.955492745559068
10,77962240.00744826
704,766168.196131842
2,1, 7,21, 0, 3,40.00,50.00,SummerDesignDay
8,20.94007141118511
10,77968924.20358968
704,766168.196131842
2,1, 7,21, 0, 3,50.00,60.00,SummerDesignDay
8,20.924645111828125
10,77974942.77450003
704,766168.196131842
2,1, 7,21, 0, 3, 0.00,60.00,SummerDesignDay
938,26.700009151007806
978,26.700002427983024
1018,26.700002316009276
1058,27.18318266151823
1098,27.16233428632634
1138,26.130673179642345
1178,25.47628324804265
1218,26.57770207464939
1258,25.692953445424548
1298,26.699374705115475
1338,26.131758395531308
1378,26.69937280764464
1418,26.38417147669934
1458,26.561789850704803
1498,26.044911140470963
1538,26.699301458103397
1578,26.20845012802695
1618,26.63612548852883
2,1, 7,21, 0, 4, 0.00,10.00,SummerDesignDay
8,20.909205468285163
10,77980324.51610027
704,766168.196131842
2,1, 7,21, 0, 4,10.00,20.00,SummerDesignDay
8,20.89375644446627
10,77985101.248946
704,766168.196131842
2,1, 7,21, 0, 4,20.00,30.00,SummerDesignDay
8,20.878302617175487
10,77989301.48347903
704,766168.196131842
2,1, 7,21, 0, 4,30.00,40.00,SummerDesignDay
8,20.862834696278875
10,77992940.34466371
704,766168.196131842
2,1, 7,21, 0, 4,40.00,50.00,SummerDesignDay
8,20.84736758914109
10,77996043.47922135
704,766168.196131842
2,1, 7,21, 0, 4,50.00,60.00,SummerDesignDay
8,20.83187595308267
10,77998620.83338282
704,766168.196131842
2,1, 7,21, 0, 4, 0.00,60.00,SummerDesignDay
938,26.70000729519227
978,26.700004400829884
1018,26.70000428529562
1058,27.210881332525557
1098,27.184371723691659
1138,26.123103797863675
1178,25.458202154838188
1218,26.581810325302997
1258,25.648897690523538
1298,26.699367254720874
1338,26.130665884901974
1378,26.69936583064052
1418,26.358458301673364
1458,26.555805165317158
1498,26.028039068138189
1538,26.699296335903516
1578,26.16608232447902
1618,26.622972374399994
2,1, 7,21, 0, 5, 0.00,10.00,SummerDesignDay
8,20.82154626521223
10,78005827.64306398
704,766168.196131842
2,1, 7,21, 0, 5,10.00,20.00,SummerDesignDay
8,20.811212600492369
10,78013130.64732932
704,766168.196131842
2,1, 7,21, 0, 5,20.00,30.00,SummerDesignDay
8,20.800879423352016
10,78020032.23541051
704,766168.196131842
2,1, 7,21, 0, 5,30.00,40.00,SummerDesignDay
8,20.79053773449398
10,74903764.44282107
704,766168.196131842
2,1, 7,21, 0, 5,40.00,50.00,SummerDesignDay
8,20.780191971271316
10,74250903.83337154
704,766168.196131842
2,1, 7,21, 0, 5,50.00,60.00,SummerDesignDay
8,20.769841693173647
10,72315178.16918169
704,766168.196131842
2,1, 7,21, 0, 5, 0.00,60.00,SummerDesignDay
938,26.70000643545983
978,26.700004993484879
1018,26.700004907427858
1058,27.237689847116159
1098,27.205705782386088
1138,26.126204328831326
1178,25.50979729342464
1218,26.61637216041328
1258,25.61953902839518
1298,26.699355606063255
1338,26.199234876377646
1378,26.699330013418537
1418,26.346328004690777
1458,26.55884359104586
1498,26.079546047550079
1538,26.699255256810618
1578,26.13664425283955
1618,26.608469529561117
2,1, 7,21, 0, 6, 0.00,10.00,SummerDesignDay
8,20.780191971271316
10,69657539.19085267
704,766168.196131842
2,1, 7,21, 0, 6,10.00,20.00,SummerDesignDay
8,20.79053773449398
10,68816699.00084809
704,766168.196131842
2,1, 7,21, 0, 6,20.00,30.00,SummerDesignDay
8,20.800879423352016
10,68395604.32928096
704,766168.196131842
2,1, 7,21, 0, 6,30.00,40.00,SummerDesignDay
8,20.811212600492369
10,68000071.40842074
704,766168.196131842
2,1, 7,21, 0, 6,40.00,50.00,SummerDesignDay
8,20.82154626521223
10,67878892.57078544
704,766168.196131842
2,1, 7,21, 0, 6,50.00,60.00,SummerDesignDay
8,20.83187595308267
10,67878892.57078544
704,766168.196131842
2,1, 7,21, 0, 6, 0.00,60.00,SummerDesignDay
938,28.94764455629979
978,27.67972831155531
1018,27.60418196263716
1058,27.340999066015386
1098,27.287381955495545
1138,26.203027114534679
1178,26.949241393763417
1218,27.054391209941476
1258,25.681973132401326
1298,26.830743773347085
1338,27.59302030247396
1378,27.449790698434524
1418,26.406204301878984
1458,26.631332018851894
1498,27.456584860403557
1538,27.28296888401897
1578,26.185838328664447
1618,26.747925409606557
2,1, 7,21, 0, 7, 0.00,10.00,SummerDesignDay
8,20.867991483822359
10,90420871.45777753
704,766168.196131842
2,1, 7,21, 0, 7,10.00,20.00,SummerDesignDay
8,20.904056518827426
10,86931141.83534889
704,766168.196131842
2,1, 7,21, 0, 7,20.00,30.00,SummerDesignDay
8,20.94007141118511
10,82099337.42925669
704,766168.196131842
2,1, 7,21, 0, 7,30.00,40.00,SummerDesignDay
8,20.976035719324256
10,84348568.3490349
704,766168.196131842
2,1, 7,21, 0, 7,40.00,50.00,SummerDesignDay
8,21.011954667733219
10,82696822.75322268
704,766168.196131842
2,1, 7,21, 0, 7,50.00,60.00,SummerDesignDay
8,21.04781854686137
10,82464946.5593881
704,766168.196131842
2,1, 7,21, 0, 7, 0.00,60.00,SummerDesignDay
938,25.282102240920027
978,25.160856812640416
1018,25.149576291580386
1058,27.477043879778603
1098,27.426826647542855
1138,25.01659945910929
1178,25.066002075755468
1218,25.094614127466817
1258,25.002189280145385
1298,25.033133982721809
1338,25.08505239124685
1378,25.11666967623796
1418,25.006927842585815
1458,25.024888834116397
1498,25.079807507148148
1538,25.090186304539519
1578,25.005744565586075
1618,27.259976009747406
2,1, 7,21, 0, 8, 0.00,10.00,SummerDesignDay
8,21.13471110025821
10,97120196.4849572
704,766168.196131842
2,1, 7,21, 0, 8,10.00,20.00,SummerDesignDay
8,21.221309664954885
10,97517466.73581267
704,766168.196131842
2,1, 7,21, 0, 8,20.00,30.00,SummerDesignDay
8,21.307616677758387
10,97255834.4478883
704,766168.196131842
2,1, 7,21, 0, 8,30.00,40.00,SummerDesignDay
8,21.393633962021306
10,95441899.10516314
704,766168.196131842
2,1, 7,21, 0, 8,40.00,50.00,SummerDesignDay
8,21.479363454901848
10,95065795.02447903
704,766168.196131842
2,1, 7,21, 0, 8,50.00,60.00,SummerDesignDay
8,21.56480572828825
10,94999917.69271723
704,766168.196131842
2,1, 7,21, 0, 8, 0.00,60.00,SummerDesignDay
938,24.18014135214048
978,24.169738867656645
1018,24.160960115897568
1058,27.386547427670125
1098,27.365757651947694
1138,24.014772801591634
1178,24.07858537843042
1218,24.087991752664207
1258,24.014690572416698
1298,24.017082116321207
1338,24.085292024492288
1378,24.094278599711104
1418,24.017074796190639
1458,24.016931608068288
1498,24.080117363356796
1538,24.048675151262179
1578,24.016900871615094
1618,27.597072011467178
2,1, 7,21, 0, 9, 0.00,10.00,SummerDesignDay
8,21.659959494127649
10,94957750.19990817
704,766168.196131842
2,1, 7,21, 0, 9,10.00,20.00,SummerDesignDay
8,21.754763580187868
10,95168592.40410632
704,766168.196131842
2,1, 7,21, 0, 9,20.00,30.00,SummerDesignDay
8,21.849216689035449
10,95480987.03887055
704,766168.196131842
2,1, 7,21, 0, 9,30.00,40.00,SummerDesignDay
8,21.94331558480392
10,95859622.19584462
704,766168.196131842
2,1, 7,21, 0, 9,40.00,50.00,SummerDesignDay
8,22.03707130951595
10,96277504.26770547
704,766168.196131842
2,1, 7,21, 0, 9,50.00,60.00,SummerDesignDay
8,22.13048294716832
10,96749092.10319108
704,766168.196131842
2,1, 7,21, 0, 9, 0.00,60.00,SummerDesignDay
938,23.999382164818827
978,23.999354043517458
1018,23.99934864272924
1058,27.344576008430577
1098,27.32775475178808
1138,23.99922166270142
1178,23.999410234159446
1218,23.99927212118213
1258,23.9992540784104
1298,23.999231145353844
1338,23.999380427562796
1378,23.99926599620646
1418,23.99925367896223
1458,23.999195114883958
1498,23.999345962027787
1538,23.99923233844375
1578,23.999216177723228
1618,28.142507371922844
2,1, 7,21, 0,10, 0.00,10.00,SummerDesignDay
8,22.213769814432565
10,97178840.10164827
704,766168.196131842
2,1, 7,21, 0,10,10.00,20.00,SummerDesignDay
8,22.29678365659492
10,97614335.97069252
704,766168.196131842
2,1, 7,21, 0,10,20.00,30.00,SummerDesignDay
8,22.379526518080718
10,98040836.0308868
704,766168.196131842
2,1, 7,21, 0,10,30.00,40.00,SummerDesignDay
8,22.461998883090386
10,98456383.09190552
704,766168.196131842
2,1, 7,21, 0,10,40.00,50.00,SummerDesignDay
8,22.54420357090447
10,98855867.49834845
704,766168.196131842
2,1, 7,21, 0,10,50.00,60.00,SummerDesignDay
8,22.626140889876245
10,99235817.04405284
704,766168.196131842
2,1, 7,21, 0,10, 0.00,60.00,SummerDesignDay
938,23.999340055406923
978,23.999347895400275
1018,23.999343010848834
1058,27.355948186478103
1098,27.33754128547521
1138,23.999243435677767
1178,23.999393267826148
1218,23.999282000359228
1258,23.999271558750129
1298,23.999229333470067
1338,23.99935085027391
1378,23.99925786524457
1418,23.999250459349797
1458,23.999198683917049
1498,23.999323040029265
1538,23.999225992105676
1578,23.999216562918947
1618,28.830379247621907
2,1, 7,21, 0,11, 0.00,10.00,SummerDesignDay
8,22.698217126852719
10,99545614.46448779
704,766168.196131842
2,1, 7,21, 0,11,10.00,20.00,SummerDesignDay
8,22.770087609245694
10,99829899.36988692
704,766168.196131842
2,1, 7,21, 0,11,20.00,30.00,SummerDesignDay
8,22.841753902583265
10,100091604.15981019
704,766168.196131842
2,1, 7,21, 0,11,30.00,40.00,SummerDesignDay
8,22.913216778184393
10,100333593.64351751
704,766168.196131842
2,1, 7,21, 0,11,40.00,50.00,SummerDesignDay
8,22.984480922747989
10,100559970.238343
704,766168.196131842
2,1, 7,21, 0,11,50.00,60.00,SummerDesignDay
8,23.055539233117515
10,100777860.52533181
704,766168.196131842
2,1, 7,21, 0,11, 0.00,60.00,SummerDesignDay
938,23.999349617126059
978,23.999354454409756
1018,23.999352720456149
1058,27.36444769497685
1098,27.346175480783719
1138,23.99929193442915
1178,23.999416275810188
1218,23.999297794500973
1258,23.999290917676708
1298,23.999268124418149
1338,23.999373518772715
1378,23.999272560364259
1418,23.99926707988038
1458,23.999242149407935
1498,23.999346283107383
1538,23.999244333061115
1578,23.999237259457997
1618,29.505292933052265
2,1, 7,21, 0,12, 0.00,10.00,SummerDesignDay
8,23.102801503400955
10,100864839.67066288
704,766168.196131842
2,1, 7,21, 0,12,10.00,20.00,SummerDesignDay
8,23.149970529930298
10,100951502.98316215
704,766168.196131842
2,1, 7,21, 0,12,20.00,30.00,SummerDesignDay
8,23.197054535495359
10,101047514.97941971
704,766168.196131842
2,1, 7,21, 0,12,30.00,40.00,SummerDesignDay
8,23.24405091760279
10,101169836.77605403
704,766168.196131842
2,1, 7,21, 0,12,40.00,50.00,SummerDesignDay
8,23.290959239877084
10,101328447.13503754
704,5071965.823329331
2,1, 7,21, 0,12,50.00,60.00,SummerDesignDay
8,23.337780161397366
10,101554595.71046032
704,766168.196131842
2,1, 7,21, 0,12, 0.00,60.00,SummerDesignDay
938,23.99936152170613
978,23.999364750631348
1018,23.99936711922005
1058,27.36370116562908
1098,27.34836439209811
1138,23.99933981654144
1178,23.999416756411099
1218,23.999315026169865
1258,23.999311351761759
1298,23.99930928261399
1338,23.999373673135549
1378,23.999288702798777
1418,23.999285247179544
1458,23.999286219017138
1498,23.999346428225779
1538,23.999264293374428
1578,23.99925943407162
1618,30.05336257375188
2,1, 7,21, 0,13, 0.00,10.00,SummerDesignDay
8,23.375168696321454
10,101845588.8081694
704,766168.196131842
2,1, 7,21, 0,13,10.00,20.00,SummerDesignDay
8,23.412509317763463
10,102188436.64323154
704,5150960.328976348
2,1, 7,21, 0,13,20.00,30.00,SummerDesignDay
8,23.44978183331926
10,102577865.29766694
704,766168.196131842
2,1, 7,21, 0,13,30.00,40.00,SummerDesignDay
8,23.48701638811906
10,103000105.69523135
704,5164647.845650528
2,1, 7,21, 0,13,40.00,50.00,SummerDesignDay
8,23.52417733438429
10,103444868.32153034
704,766168.196131842
2,1, 7,21, 0,13,50.00,60.00,SummerDesignDay
8,23.561301163043504
10,103913641.64312944
704,766168.196131842
2,1, 7,21, 0,13, 0.00,60.00,SummerDesignDay
938,23.99934120784869
978,23.99934926507485
1018,23.999354077540109
1058,27.35666757905514
1098,27.34787245877084
1138,23.999343744347077
1178,23.999349545486426
1218,23.999303460838659
1258,23.99925854100479
1298,23.999308154823635
1338,23.999310308324639
1378,23.999274395832889
1418,23.99923598919241
1458,23.99928585432184
1498,23.999284939842814
1538,23.999252220578684
1578,23.999216010115103
1618,30.41700267161396
2,1, 7,21, 0,14, 0.00,10.00,SummerDesignDay
8,23.584468652232446
10,104252082.3415317
704,5123261.338922204
2,1, 7,21, 0,14,10.00,20.00,SummerDesignDay
8,23.607614591370639
10,104425692.83441954
704,766168.196131842
2,1, 7,21, 0,14,20.00,30.00,SummerDesignDay
8,23.630734203455029
10,104570473.51465121
704,4476486.986385637
2,1, 7,21, 0,14,30.00,40.00,SummerDesignDay
8,23.65384967253545
10,104685469.50490362
704,1424985.7770749178
2,1, 7,21, 0,14,40.00,50.00,SummerDesignDay
8,23.676931270816597
10,104771098.47618437
704,766168.196131842
2,1, 7,21, 0,14,50.00,60.00,SummerDesignDay
8,23.699991650503447
10,104817154.47235728
704,5128330.194968784
2,1, 7,21, 0,14, 0.00,60.00,SummerDesignDay
938,23.999324414926318
978,23.999333078994157
1018,23.9993413001898
1058,27.355195973576305
1098,27.353188153481299
1138,23.999345174100666
1178,23.999321478016826
1218,23.999291919485104
1258,23.999235368208884
1298,23.999307340598138
1338,23.99928555508899
1378,23.99926242663905
1418,23.999212663243953
1458,23.999285430702075
1498,23.99926282005829
1538,23.999242742618198
1578,23.999197445331317
1618,30.60913976908621
2,1, 7,21, 0,15, 0.00,10.00,SummerDesignDay
8,23.699991650503447
10,104851133.62192443
704,766168.196131842
2,1, 7,21, 0,15,10.00,20.00,SummerDesignDay
8,23.699991650503447
10,104960705.09831831
704,766168.196131842
2,1, 7,21, 0,15,20.00,30.00,SummerDesignDay
8,23.699991650503447
10,104930593.20624718
704,766168.196131842
2,1, 7,21, 0,15,30.00,40.00,SummerDesignDay
8,23.699991650503447
10,104908346.91914852
704,766168.196131842
2,1, 7,21, 0,15,40.00,50.00,SummerDesignDay
8,23.699991650503447
10,104888266.49456337
704,4939908.377581699
2,1, 7,21, 0,15,50.00,60.00,SummerDesignDay
8,23.699991650503447
10,104870668.7649849
704,766168.196131842
2,1, 7,21, 0,15, 0.00,60.00,SummerDesignDay
938,24.02578686726767
978,24.018260169594499
1018,24.057754063330639
1058,27.361725689453708
1098,27.367442431018814
1138,24.025525455556296
1178,24.022022329469594
1218,24.048746865703618
1258,24.036917572112235
1298,24.028792433195247
1338,24.025580057747648
1378,24.05137699181814
1418,24.040035873084859
1458,24.030946046538828
1498,24.027829232325876
1538,24.061710576504756
1578,24.041977515275716
1618,30.625880537928059
2,1, 7,21, 0,16, 0.00,10.00,SummerDesignDay
8,23.672307358563665
10,104764102.94584815
704,766168.196131842
2,1, 7,21, 0,16,10.00,20.00,SummerDesignDay
8,23.64460948071794
10,104662008.94836402
704,766168.196131842
2,1, 7,21, 0,16,20.00,30.00,SummerDesignDay
8,23.61686844545739
10,104563617.4009564
704,766168.196131842
2,1, 7,21, 0,16,30.00,40.00,SummerDesignDay
8,23.589091188236055
10,104468508.92926558
704,4940716.245053396
2,1, 7,21, 0,16,40.00,50.00,SummerDesignDay
8,23.561301163043504
10,104376239.65895123
704,766168.196131842
2,1, 7,21, 0,16,50.00,60.00,SummerDesignDay
8,23.533467080370163
10,104286503.4687071
704,766168.196131842
2,1, 7,21, 0,16, 0.00,60.00,SummerDesignDay
938,24.03757136158389
978,24.025973951987714
1018,24.10968376787653
1058,27.36735796883759
1098,27.381321570637924
1138,24.033529768280859
1178,24.03062796497265
1218,24.05018772491667
1258,24.086377461696164
1298,24.038730958011187
1338,24.03614556723414
1378,24.056936620394553
1418,24.095563275710693
1458,24.042227478439434
1498,24.039689406581855
1538,24.070837204905755
1578,24.10773278178975
1618,30.45628176741614
2,1, 7,21, 0,17, 0.00,10.00,SummerDesignDay
8,23.496315172028504
10,104056819.80279233
704,766168.196131842
2,1, 7,21, 0,17,10.00,20.00,SummerDesignDay
8,23.459098962673627
10,103589814.56502103
704,5047861.012150888
2,1, 7,21, 0,17,20.00,30.00,SummerDesignDay
8,23.421835869543999
10,103154791.14154142
704,766168.196131842
2,1, 7,21, 0,17,30.00,40.00,SummerDesignDay
8,23.384509217485939
10,102533953.50873119
704,766168.196131842
2,1, 7,21, 0,17,40.00,50.00,SummerDesignDay
8,23.34713053816139
10,102127225.93728607
704,766168.196131842
2,1, 7,21, 0,17,50.00,60.00,SummerDesignDay
8,23.309695989572697
10,101872580.85719535
704,5024224.630319098
2,1, 7,21, 0,17, 0.00,60.00,SummerDesignDay
938,23.999762617198575
978,23.999525441732144
1018,24.010073452016799
1058,27.3540245371705
1098,27.37622794622196
1138,23.999623473537388
1178,23.99958602120625
1218,23.999525008074604
1258,24.066574453007079
1298,23.999707146176207
1338,23.999672745563957
1378,23.99960346516059
1418,24.070167188182997
1458,23.99978088969682
1498,23.999744650048556
1538,23.99972128659769
1578,24.07467795732535
1618,30.056620744473635
2,1, 7,21, 0,18, 0.00,10.00,SummerDesignDay
8,23.262826699708766
10,101610126.41721002
704,766168.196131842
2,1, 7,21, 0,18,10.00,20.00,SummerDesignDay
8,23.21586584854855
10,101411574.32010028
704,766168.196131842
2,1, 7,21, 0,18,20.00,30.00,SummerDesignDay
8,23.168816376440029
10,100926010.85762367
704,766168.196131842
2,1, 7,21, 0,18,30.00,40.00,SummerDesignDay
8,23.12167829542215
10,98546246.7575625
704,766168.196131842
2,1, 7,21, 0,18,40.00,50.00,SummerDesignDay
8,23.074452033295477
10,97672091.39404069
704,766168.196131842
2,1, 7,21, 0,18,50.00,60.00,SummerDesignDay
8,23.02714043821021
10,96989934.063389
704,2250086.9077622008
2,1, 7,21, 0,18, 0.00,60.00,SummerDesignDay
938,23.999378761054918
978,23.99936856664556
1018,23.999391903195478
1058,27.32078638552089
1098,27.348264921947423
1138,23.99936731604035
1178,23.999364718825946
1218,23.999325945541199
1258,23.99962123292093
1298,23.999339579818657
1338,23.99933616237155
1378,23.999305800075914
1418,23.99962494490359
1458,23.99932651399347
1498,23.999322281138505
1538,23.999297478435037
1578,23.999617847639099
1618,29.453428544023294
2,1, 7,21, 0,19, 0.00,10.00,SummerDesignDay
8,22.955998030729086
10,96022250.72024405
704,3377208.1324432205
2,1, 7,21, 0,19,10.00,20.00,SummerDesignDay
8,22.884656963830858
10,95466586.22235093
704,766168.196131842
2,1, 7,21, 0,19,20.00,30.00,SummerDesignDay
8,22.813112648278538
10,94988094.76397665
704,766168.196131842
2,1, 7,21, 0,19,30.00,40.00,SummerDesignDay
8,22.74136475535084
10,93907750.32816723
704,766168.196131842
2,1, 7,21, 0,19,40.00,50.00,SummerDesignDay
8,22.669412429768046
10,93861073.3619747
704,766168.196131842
2,1, 7,21, 0,19,50.00,60.00,SummerDesignDay
8,22.597249180691447
10,93479895.54154623
704,766168.196131842
2,1, 7,21, 0,19, 0.00,60.00,SummerDesignDay
938,23.999433395411257
978,23.999422834880109
1018,23.999443999703457
1058,27.26434955179012
1098,27.293585187725694
1138,23.99940360170794
1178,23.999399821394375
1218,23.99940499852612
1258,23.99952322985574
1298,23.99937507679881
1338,23.999370677580953
1378,23.999380073157228
1418,23.999484961714
1458,23.999361383915056
1498,23.999356150267727
1538,23.999367223962083
1578,23.99946479482222
1618,28.709767788190776
2,1, 7,21, 0,20, 0.00,10.00,SummerDesignDay
8,22.54420357090447
10,94468570.66040513
704,766168.196131842
2,1, 7,21, 0,20,10.00,20.00,SummerDesignDay
8,22.49104180927024
10,98474521.16987506
704,766168.196131842
2,1, 7,21, 0,20,20.00,30.00,SummerDesignDay
8,22.437767475426619
10,97791297.17389533
704,766168.196131842
2,1, 7,21, 0,20,30.00,40.00,SummerDesignDay
8,22.384385775235136
10,97236139.17513438
704,766168.196131842
2,1, 7,21, 0,20,40.00,50.00,SummerDesignDay
8,22.33088606837434
10,96739789.4893423
704,766168.196131842
2,1, 7,21, 0,20,50.00,60.00,SummerDesignDay
8,22.277273112035258
10,96280850.34753502
704,766168.196131842
2,1, 7,21, 0,20, 0.00,60.00,SummerDesignDay
938,23.99944931982338
978,23.999443490079487
1018,23.999460641662155
1058,27.178740859087328
1098,27.2051409811062
1138,23.999408796378629
1178,23.99940582373284
1218,23.99943514236557
1258,23.999510281403827
1298,23.99937966952505
1338,23.99937656424755
1378,23.99939878761091
1418,23.999466528011454
1458,23.999365242348366
1498,23.999361164033947
1538,23.999383261243627
1578,23.99944567110786
1618,27.83733266649997
2,1, 7,21, 0,21, 0.00,10.00,SummerDesignDay
8,22.233324669547739
10,95884079.25824967
704,766168.196131842
2,1, 7,21, 0,21,10.00,20.00,SummerDesignDay
8,22.189299394088044
10,95513671.50094694
704,766168.196131842
2,1, 7,21, 0,21,20.00,30.00,SummerDesignDay
8,22.145202107551495
10,95164416.95764542
704,766168.196131842
2,1, 7,21, 0,21,30.00,40.00,SummerDesignDay
8,22.101023102268618
10,94833288.61405757
704,766168.196131842
2,1, 7,21, 0,21,40.00,50.00,SummerDesignDay
8,22.056767334331388
10,94517838.27840324
704,766168.196131842
2,1, 7,21, 0,21,50.00,60.00,SummerDesignDay
8,22.012434213349633
10,94216059.78103158
704,766168.196131842
2,1, 7,21, 0,21, 0.00,60.00,SummerDesignDay
938,23.99939364528719
978,23.99939793329808
1018,23.999410597303254
1058,27.08062835382601
1098,27.10550354029751
1138,23.999357359497766
1178,23.99935610949264
1218,23.999360459283407
1258,23.999400913558945
1298,23.999327416785865
1338,23.999325218441908
1378,23.999327701695028
1418,23.999360911897197
1458,23.9993107115708
1498,23.999307436497877
1538,23.99931129759513
1578,23.999340154560988
1618,27.0689495970947
2,1, 7,21, 0,22, 0.00,10.00,SummerDesignDay
8,21.96802372811924
10,93926309.06937088
704,766168.196131842
2,1, 7,21, 0,22,10.00,20.00,SummerDesignDay
8,21.92353584370884
10,93647375.29885715
704,766168.196131842
2,1, 7,21, 0,22,20.00,30.00,SummerDesignDay
8,21.878969210749209
10,93379201.75691705
704,766168.196131842
2,1, 7,21, 0,22,30.00,40.00,SummerDesignDay
8,21.834324395018095
10,93119305.21124146
704,766168.196131842
2,1, 7,21, 0,22,40.00,50.00,SummerDesignDay
8,21.789601824015393
10,92866834.40928506
704,766168.196131842
2,1, 7,21, 0,22,50.00,60.00,SummerDesignDay
8,21.744800023061559
10,92621386.30863977
704,766168.196131842
2,1, 7,21, 0,22, 0.00,60.00,SummerDesignDay
938,23.999374706234677
978,23.999377928456096
1018,23.999386873568669
1058,26.988262507725126
1098,27.008950441634054
1138,23.99933257997336
1178,23.99933212957785
1218,23.999330075501118
1258,23.999361706180506
1298,23.999306097465845
1338,23.999304430241826
1378,23.999303075426977
1418,23.999327529946386
1458,23.99928670321786
1498,23.99928391498895
1538,23.999284241289364
1578,23.999305284896434
1618,26.539244207921198
2,1, 7,21, 0,23, 0.00,10.00,SummerDesignDay
8,21.709900736545106
10,78926671.68056369
704,766168.196131842
2,1, 7,21, 0,23,10.00,20.00,SummerDesignDay
8,21.67495304215166
10,78406377.77885033
704,766168.196131842
2,1, 7,21, 0,23,20.00,30.00,SummerDesignDay
8,21.639958113829917
10,78666879.2093011
704,766168.196131842
2,1, 7,21, 0,23,30.00,40.00,SummerDesignDay
8,21.604914610606316
10,78968949.46260129
704,766168.196131842
2,1, 7,21, 0,23,40.00,50.00,SummerDesignDay
8,21.569819097467279
10,79955974.64129646
704,766168.196131842
2,1, 7,21, 0,23,50.00,60.00,SummerDesignDay
8,21.534679356042316
10,79313627.54204838
704,766168.196131842
2,1, 7,21, 0,23, 0.00,60.00,SummerDesignDay
938,26.50015132069773
978,26.154172581401104
1018,26.146671636731143
1058,26.97850193450022
1098,26.96903603113876
1138,25.465524708449768
1178,25.06553629488967
1218,25.70415304296314
1258,25.32836363168677
1298,25.897918790602359
1338,25.520168300694228
1378,26.076736835020339
1418,25.80403297722692
1458,25.81840048788207
1498,25.497894594680557
1538,26.011995043765756
1578,25.72352518261566
1618,26.321738541801783
2,1, 7,21, 0,24, 0.00,10.00,SummerDesignDay
8,21.49949053597118
10,79442229.50205007
704,766168.196131842
2,1, 7,21, 0,24,10.00,20.00,SummerDesignDay
8,21.464253674051844
10,79532166.0106861
704,766168.196131842
2,1, 7,21, 0,24,20.00,30.00,SummerDesignDay
8,21.428968817991497
10,79579710.37465422
704,766168.196131842
2,1, 7,21, 0,24,30.00,40.00,SummerDesignDay
8,21.393633962021306
10,79602054.14796838
704,766168.196131842
2,1, 7,21, 0,24,40.00,50.00,SummerDesignDay
8,21.3582466871985
10,79617570.55559987