Program Version,EnergyPlus, Version 9.1.0-08d2e308bb, YMD=2019.04.09 23:15
1,5,Environment Title[],Latitude[deg],Longitude[deg],Time Zone[],Elevation[m]
2,8,Day of Simulation[],Month[],Day of Month[],DST Indicator[1=yes 0=no],Hour[],StartMinute[],EndMinute[],DayType
3,5,Cumulative Day of Simulation[],Month[],Day of Month[],DST Indicator[1=yes 0=no],DayType  ! When Daily Report Variables Requested
4,2,Cumulative Days of Simulation[],Month[]  ! When Monthly Report Variables Requested
5,1,Cumulative Days of Simulation[] ! When Run Period Report Variables Requested
6,1,Calendar Year of Simulation[] ! When Annual Report Variables Requested
7,9,Environment,Site Outdoor Air Drybulb Temperature [C] !Monthly [Value,Min,Day,Hour,Minute,Max,Day,Hour,Minute]
8,1,Environment,Site Outdoor Air Wetbulb Temperature [C] !TimeStep
1503,1,BATH_ZN_1_FLR_1 ZN,Zone Air Temperature [C] !Hourly
1504,7,BATH_ZN_1_FLR_1 ZN,Zone Air Relative Humidity [%] !Daily [Value,Min,Hour,Minute,Max,Hour,Minute]
1543,1,CAFETERIA_ZN_1_FLR_1 ZN,Zone Air Temperature [C] !Hourly
1544,7,CAFETERIA_ZN_1_FLR_1 ZN,Zone Air Relative Humidity [%] !Daily [Value,Min,Hour,Minute,Max,Hour,Minute]
1583,1,COMPUTER_CLASS_ZN_1_FLR_1 ZN,Zone Air Temperature [C] !Hourly
1584,7,COMPUTER_CLASS_ZN_1_FLR_1 ZN,Zone Air Relative Humidity [%] !Daily [Value,Min,Hour,Minute,Max,Hour,Minute]
1623,1,CORNER_CLASS_1_POD_1_ZN_1_FLR_1 ZN,Zone Air Temperature [C] !Hourly
1624,7,CORNER_CLASS_1_POD_1_ZN_1_FLR_1 ZN,Zone Air Relative Humidity [%] !Daily [Value,Min,Hour,Minute,Max,Hour,Minute]
1663,1,CORNER_CLASS_1_POD_2_ZN_1_FLR_1 ZN,Zone Air Temperature [C] !Hourly
1664,7,CORNER_CLASS_1_POD_2_ZN_1_FLR_1 ZN,Zone Air Relative Humidity [%] !Daily [Value,Min,Hour,Minute,Max,Hour,Minute]
1703,1,CORNER_CLASS_1_POD_3_ZN_1_FLR_1 ZN,Zone Air Temperature [C] !Hourly
1704,7,CORNER_CLASS_1_POD_3_ZN_1_FLR_1 ZN,Zone Air Relative Humidity [%] !Daily [Value,Min,Hour,Minute,Max,Hour,Minute]
1743,1,CORNER_CLASS_2_POD_1_ZN_1_FLR_1 ZN,Zone Air Temperature [C] !Hourly
1744,7,CORNER_CLASS_2_POD_1_ZN_1_FLR_1 ZN,Zone Air Relative Humidity [%] !Daily [Value,Min,Hour,Minute,Max,Hour,Minute]
1783,1,CORNER_CLASS_2_POD_2_ZN_1_FLR_1 ZN,Zone Air Temperature [C] !Hourly
1784,7,CORNER_CLASS_2_POD_2_ZN_1_FLR_1 ZN,Zone Air Relative Humidity [%] !Daily [Value,Min,Hour,Minute,Max,Hour,Minute]
1823,1,CORNER_CLASS_2_POD_3_ZN_1_FLR_1 ZN,Zone Air Temperature [C] !Hourly
1824,7,CORNER_CLASS_2_POD_3_ZN_1_FLR_1 ZN,Zone Air Relative Humidity [%] !Daily [Value,Min,Hour,Minute,Max,Hour,Minute]
1863,1,CORRIDOR_POD_1_ZN_1_FLR_1 ZN,Zone Air Temperature [C] !Hourly
1864,7,CORRIDOR_POD_1_ZN_1_FLR_1 ZN,Zone Air Relative Humidity [%] !Daily [Value,Min,Hour,Minute,Max,Hour,Minute]
1903,1,CORRIDOR_POD_2_ZN_1_FLR_1 ZN,Zone Air Temperature [C] !Hourly
1904,7,CORRIDOR_POD_2_ZN_1_FLR_1 ZN,Zone Air Relative Humidity [%] !Daily [Value,Min,Hour,Minute,Max,Hour,Minute]
1943,1,CORRIDOR_POD_3_ZN_1_FLR_1 ZN,Zone Air Temperature [C] !Hourly
1944,7,CORRIDOR_POD_3_ZN_1_FLR_1 ZN,Zone Air Relative Humidity [%] !Daily [Value,Min,Hour,Minute,Max,Hour,Minute]
1983,1,GYM_ZN_1_FLR_1 ZN,Zone Air Temperature [C] !Hourly
1984,7,GYM_ZN_1_FLR_1 ZN,Zone Air Relative Humidity [%] !Daily [Value,Min,Hour,Minute,Max,Hour,Minute]
2011,1,KITCHEN_ZN_1_FLR_1 ZN,Zone Air Temperature [C] !Hourly
2012,7,KITCHEN_ZN_1_FLR_1 ZN,Zone Air Relative Humidity [%] !Daily [Value,Min,Hour,Minute,Max,Hour,Minute]
2051,1,LIBRARY_MEDIA_CENTER_ZN_1_FLR_1 ZN,Zone Air Temperature [C] !Hourly
2052,7,LIBRARY_MEDIA_CENTER_ZN_1_FLR_1 ZN,Zone Air Relative Humidity [%] !Daily [Value,Min,Hour,Minute,Max,Hour,Minute]
2091,1,LOBBY_ZN_1_FLR_1 ZN,Zone Air Temperature [C] !Hourly
2092,7,LOBBY_ZN_1_FLR_1 ZN,Zone Air Relative Humidity [%] !Daily [Value,Min,Hour,Minute,Max,Hour,Minute]
2131,1,MAIN_CORRIDOR_ZN_1_FLR_1 ZN,Zone Air Temperature [C] !Hourly
2132,7,MAIN_CORRIDOR_ZN_1_FLR_1 ZN,Zone Air Relative Humidity [%] !Daily [Value,Min,Hour,Minute,Max,Hour,Minute]
2171,1,MECH_ZN_1_FLR_1 ZN,Zone Air Temperature [C] !Hourly
2172,7,MECH_ZN_1_FLR_1 ZN,Zone Air Relative Humidity [%] !Daily [Value,Min,Hour,Minute,Max,Hour,Minute]
2211,1,MULT_CLASS_1_POD_1_ZN_1_FLR_1 ZN,Zone Air Temperature [C] !Hourly
2212,7,MULT_CLASS_1_POD_1_ZN_1_FLR_1 ZN,Zone Air Relative Humidity [%] !Daily [Value,Min,Hour,Minute,Max,Hour,Minute]
2251,1,MULT_CLASS_1_POD_2_ZN_1_FLR_1 ZN,Zone Air Temperature [C] !Hourly
2252,7,MULT_CLASS_1_POD_2_ZN_1_FLR_1 ZN,Zone Air Relative Humidity [%] !Daily [Value,Min,Hour,Minute,Max,Hour,Minute]
2291,1,MULT_CLASS_1_POD_3_ZN_1_FLR_1 ZN,Zone Air Temperature [C] !Hourly
2292,7,MULT_CLASS_1_POD_3_ZN_1_FLR_1 ZN,Zone Air Relative Humidity [%] !Daily [Value,Min,Hour,Minute,Max,Hour,Minute]
2331,1,MULT_CLASS_2_POD_1_ZN_1_FLR_1 ZN,Zone Air Temperature [C] !Hourly
2332,7,MULT_CLASS_2_POD_1_ZN_1_FLR_1 ZN,Zone Air Relative Humidity [%] !Daily [Value,Min,Hour,Minute,Max,Hour,Minute]
2371,1,MULT_CLASS_2_POD_2_ZN_1_FLR_1 ZN,Zone Air Temperature [C] !Hourly
2372,7,MULT_CLASS_2_POD_2_ZN_1_FLR_1 ZN,Zone Air Relative Humidity [%] !Daily [Value,Min,Hour,Minute,Max,Hour,Minute]
2411,1,MULT_CLASS_2_POD_3_ZN_1_FLR_1 ZN,Zone Air Temperature [C] !Hourly
2412,7,MULT_CLASS_2_POD_3_ZN_1_FLR_1 ZN,Zone Air Relative Humidity [%] !Daily [Value,Min,Hour,Minute,Max,Hour,Minute]
2451,1,OFFICES_ZN_1_FLR_1 ZN,Zone Air Temperature [C] !Hourly
2452,7,OFFICES_ZN_1_FLR_1 ZN,Zone Air Relative Humidity [%] !Daily [Value,Min,Hour,Minute,Max,Hour,Minute]
3080,1,Heating:Gas [J] !Hourly
3130,1,Pumps:Electricity [J] !Hourly
1288,1,WaterSystems:Gas [J] !Hourly
684,1,InteriorEquipment:Electricity [J] !Hourly
1071,1,InteriorEquipment:Gas [J] !Hourly
2952,1,Cooling:Electricity [J] !Hourly
3105,1,Heating:Electricity [J] !Hourly
3016,1,HeatRejection:Electricity [J] !Hourly
2887,1,ExteriorLights:Electricity [J] !Hourly
1414,1,WaterSystems:Electricity [J] !Hourly
1035,1,Gas:Facility [J] !Hourly
1169,1,Refrigeration:Electricity [J] !Hourly
2622,1,Fans:Electricity [J] !Hourly
47,1,InteriorLights:Electricity [J] !Hourly
11,1,Electricity:Facility [J] !Hourly
10,1,Electricity:Facility [J] !TimeStep
1034,1,Gas:Facility [J] !TimeStep
End of Data Dictionary
1,BURLINGTON INTERNATIONAL AP ANN CLG .4% CONDNS DB=>MWB,  44.47, -73.15,  -5.00, 101.00
2,1, 7,21, 0, 1, 0.00,10.00,SummerDesignDay
8,19.013057103584104
10,106267841.0992826
1034,3355754.5148331986
2,1, 7,21, 0, 1,10.00,20.00,SummerDesignDay
8,18.97893781052014
10,106259356.73269688
1034,3355754.5148331986
2,1, 7,21, 0, 1,20.00,30.00,SummerDesignDay
8,18.94476987692899
10,106251167.83575873
1034,3355754.5148331986
2,1, 7,21, 0, 1,30.00,40.00,SummerDesignDay
8,18.910562535100995
10,106243200.44014248
1034,3355754.5148331986
2,1, 7,21, 0, 1,40.00,50.00,SummerDesignDay
8,18.876311008319445
10,106235486.71366507
1034,3355754.5148331986
2,1, 7,21, 0, 1,50.00,60.00,SummerDesignDay
8,18.842009604386534
10,106227882.66312216
1034,3355754.5148331986
2,1, 7,21, 0, 1, 0.00,60.00,SummerDesignDay
1503,24.000393131246189
1543,19.9295584677719
1583,23.242111650053788
1623,23.44443878199785
1663,23.447557236494047
1703,23.4484480730205
1743,23.3903260537398
1783,23.389891960314903
1823,23.384929872784409
1863,24.000414867703385
1903,24.00041272291416
1943,24.000415507322648
1983,22.744940810402853
2011,23.999575730845078
2051,23.23919239773799
2091,24.00038348702341
2131,24.00035078937861
2171,23.950379916262368
2211,23.266997975296535
2251,23.270738827908489
2291,23.278388451977155
2331,23.206674044882818
2371,23.20673358901708
2411,23.210590498937454
2451,24.00050590476279
11,637484935.4846679
47,275948601.8972044
684,111252248.06249604
1035,20134527.08899919
1071,17312252.683240694
1169,10164063.0621805
1288,2822274.4057584984
1414,0.0
2622,83739250.00650014
2887,8417556.0
2952,98586088.06930056
3016,11412688.735173513
3080,0.0
3105,0.0
3130,37964439.65181285
2,1, 7,21, 0, 2, 0.00,10.00,SummerDesignDay
8,18.81911914765364
10,106217627.89533787
1034,3355754.5148331986
2,1, 7,21, 0, 2,10.00,20.00,SummerDesignDay
8,18.796214156291275
10,106209574.79773382
1034,3355754.5148331986
2,1, 7,21, 0, 2,20.00,30.00,SummerDesignDay
8,18.773283894742776
10,106201858.70254809
1034,3355754.5148331986
2,1, 7,21, 0, 2,30.00,40.00,SummerDesignDay
8,18.75033380717878
10,106194351.18045555
1034,3355754.5148331986
2,1, 7,21, 0, 2,40.00,50.00,SummerDesignDay
8,18.72736361963713
10,106187109.44558724
1034,3355754.5148331986
2,1, 7,21, 0, 2,50.00,60.00,SummerDesignDay
8,18.70437370978451
10,106366152.1747154
1034,3355754.5148331986
2,1, 7,21, 0, 2, 0.00,60.00,SummerDesignDay
1503,24.000383754034229
1543,19.798169727103376
1583,23.140267199994527
1623,23.295413407773187
1663,23.3009280180983
1703,23.301495823467066
1743,23.246458214115376
1783,23.245850239076856
1823,23.23852526545497
1863,24.000441332058313
1903,24.000437004968778
1943,24.0004422701318
1983,22.63453512407527
2011,23.99947207775189
2051,23.133513794391634
2091,24.000230463712684
2131,24.000354413251967
2171,23.90022630758665
2211,23.160816546169817
2251,23.168136374835453
2291,23.17401425916661
2331,23.10843745377154
2371,23.10822534387084
2411,23.10760812927045
2451,24.00050614156632
11,637376674.196378
47,275948601.8972044
684,111252248.06249604
1035,20134527.08899919
1071,17312252.683240694
1169,10127813.689969035
1288,2822274.4057584984
1414,186201.88561645899
2622,83380758.35721579
2887,8417556.0
2952,98586088.06930056
3016,11543450.723858845
3080,0.0
3105,0.0
3130,37933955.51071694
2,1, 7,21, 0, 3, 0.00,10.00,SummerDesignDay
8,18.687119669205197
10,106171676.56558699
1034,3355754.5148331986
2,1, 7,21, 0, 3,10.00,20.00,SummerDesignDay
8,18.66985995614071
10,106164368.79718292
1034,3355754.5148331986
2,1, 7,21, 0, 3,20.00,30.00,SummerDesignDay
8,18.65257207684662
10,106157515.17018827
1034,3355754.5148331986
2,1, 7,21, 0, 3,30.00,40.00,SummerDesignDay
8,18.635283884146085
10,106150604.60690342
1034,3355754.5148331986
2,1, 7,21, 0, 3,40.00,50.00,SummerDesignDay
8,18.61798458953381
10,106143981.7294096
1034,3355754.5148331986
2,1, 7,21, 0, 3,50.00,60.00,SummerDesignDay
8,18.60067404800438
10,106137461.61669445
1034,3355754.5148331986
2,1, 7,21, 0, 3, 0.00,60.00,SummerDesignDay
1503,24.0003812101384
1543,19.684200155556807
1583,23.050470421390015
1623,23.164025462294718
1663,23.171587698495
1703,23.171833220681063
1743,23.120322298131457
1783,23.11957906771968
1823,23.110199426919665
1863,24.000289237554754
1903,24.000289438464454
1943,24.000290193834727
1983,22.53752121929314
2011,23.999258657289244
2051,23.03967752997539
2091,24.00020813132829
2131,24.00028121109345
2171,23.85253652602839
2211,23.066612798190694
2251,23.0768646814851
2291,23.081015836053326
2331,23.021509283533903
2371,23.021094518088789
2411,23.016704863057467
2451,24.000516442246938
11,636925608.4859656
47,275948601.8972044
684,111252248.06249604
1035,20134527.08899919
1071,17312252.683240694
1169,10102908.719668065
1288,2822274.4057584984
1414,0.0
2622,83069099.80760512
2887,8417556.0
2952,98586088.06930056
3016,11639405.785692264
3080,0.0
3105,0.0
3130,37909700.14399929
2,1, 7,21, 0, 4, 0.00,10.00,SummerDesignDay
8,18.583352262032574
10,106132025.37813828
1034,3355754.5148331986
2,1, 7,21, 0, 4,10.00,20.00,SummerDesignDay
8,18.566025010245605
10,106127636.3668218
1034,3355754.5148331986
2,1, 7,21, 0, 4,20.00,30.00,SummerDesignDay
8,18.548669744125534
10,106123639.00369747
1034,3355754.5148331986
2,1, 7,21, 0, 4,30.00,40.00,SummerDesignDay
8,18.531313602482549
10,105678417.78695715
1034,3355754.5148331986
2,1, 7,21, 0, 4,40.00,50.00,SummerDesignDay
8,18.513946197837706
10,105233600.89837066
1034,3355754.5148331986
2,1, 7,21, 0, 4,50.00,60.00,SummerDesignDay
8,18.496567845955956
10,105417651.79664266
1034,7055589.578621146
2,1, 7,21, 0, 4, 0.00,60.00,SummerDesignDay
1503,24.000403722176285
1543,19.640309182616737
1583,22.9995050190403
1623,23.075098003087644
1663,23.084498947884076
1703,23.084420291602929
1743,23.036535415737025
1783,23.035682592682734
1823,23.024447669403825
1863,24.000289502138075
1903,24.000289163733894
1943,24.000290492966898
1983,22.47684508683935
2011,23.99929035741812
2051,22.986462276581965
2091,24.000218390852436
2131,24.00024923048053
2171,23.821210405106354
2211,23.012276048601213
2251,23.025109555701417
2291,23.027614789999367
2331,22.973971318217897
2371,22.973393822941977
2411,22.965354219197037
2451,24.000560518378156
11,634712971.230628
47,275948601.8972044
684,111252248.06249604
1035,23834362.152787139
1071,17312252.683240694
1169,7873318.445895979
1288,6522109.469546446
1414,186207.94973971719
2622,82854048.2484511
2887,8417556.0
2952,98586088.06930056
3016,11730355.922001696
3080,0.0
3105,0.0
3130,37864546.63553854
2,1, 7,21, 0, 5, 0.00,10.00,SummerDesignDay
8,18.484972221923468
10,105365892.41741672
1034,7587176.267143485
2,1, 7,21, 0, 5,10.00,20.00,SummerDesignDay
8,18.473376666539456
10,105362812.74077584
1034,3355754.5148331986
2,1, 7,21, 0, 5,20.00,30.00,SummerDesignDay
8,18.461771705902338
10,105360004.44899395
1034,3355754.5148331986
2,1, 7,21, 0, 5,30.00,40.00,SummerDesignDay
8,18.45016613401371
10,103848001.17514119
1034,3355754.5148331986
2,1, 7,21, 0, 5,40.00,50.00,SummerDesignDay
8,18.438555058759897
10,101611049.82169199
1034,3355754.5148331986
2,1, 7,21, 0, 5,50.00,60.00,SummerDesignDay
8,18.42693468120436
10,95768571.01104404
1034,3355754.5148331986
2,1, 7,21, 0, 5, 0.00,60.00,SummerDesignDay
1503,24.000435076790656
1543,19.685648274106965
1583,23.002216701700875
1623,23.04239312424271
1663,23.052232585725255
1703,23.05192495119069
1743,23.003553272118255
1783,23.003530051177408
1823,22.994983534432966
1863,24.00030304412739
1903,24.000301984067936
1943,24.000303772714543
1983,22.47743306935894
2011,23.999350391720374
2051,22.996413643292063
2091,24.000245657879345
2131,24.00026578687644
2171,23.81419262586395
2211,23.010864903669956
2251,23.02418969443981
2291,23.025517520898576
2331,22.96390773409912
2371,22.96386637102302
2411,22.969446877600036
2451,24.00059823787251
11,617316331.6150638
47,265533087.52867563
684,111252248.06249604
1035,24365948.841309474
1071,17312252.683240694
1169,5608621.9063293379
1288,7053696.158068786
1414,0.0
2622,82730606.7675643
2887,4208778.0
2952,98380405.23492824
3016,11780286.667195907
3080,0.0
3105,0.0
3130,37822297.4478744
2,1, 7,21, 0, 6, 0.00,10.00,SummerDesignDay
8,18.438555058759897
10,92275579.82280392
1034,3355754.5148331986
2,1, 7,21, 0, 6,10.00,20.00,SummerDesignDay
8,18.45016613401371
10,89833994.84170853
1034,3355754.5148331986
2,1, 7,21, 0, 6,20.00,30.00,SummerDesignDay
8,18.461771705902338
10,89190324.79646844
1034,3355754.5148331986
2,1, 7,21, 0, 6,30.00,40.00,SummerDesignDay
8,18.473376666539456
10,88502971.1904696
1034,3355754.5148331986
2,1, 7,21, 0, 6,40.00,50.00,SummerDesignDay
8,18.484972221923468
10,87219266.85595416
1034,3355754.5148331986
2,1, 7,21, 0, 6,50.00,60.00,SummerDesignDay
8,18.496567845955956
10,86911372.73352759
1034,3355754.5148331986
2,1, 7,21, 0, 6, 0.00,60.00,SummerDesignDay
1503,24.000414328302726
1543,19.949844499932828
1583,22.889931857931346
1623,22.763283108188046
1663,22.82894243182281
1703,22.82972829034325
1743,22.85879131425877
1783,22.869744232459536
1823,22.842270513149186
1863,24.00026259470837
1903,24.00026067750757
1943,24.000258105605665
1983,22.731831071724647
2011,23.999305382570353
2051,23.17135653945323
2091,24.000109293317185
2131,24.000228449483776
2171,23.81660043847073
2211,22.853858970120567
2251,22.89731561648955
2291,22.90170137981738
2331,22.86809153561552
2371,22.875536994124219
2411,22.854392687020434
2451,24.0004096259203
11,533933510.2409323
47,185829137.99160976
684,111252248.06249604
1035,20134527.08899919
1071,17312252.683240694
1169,5571207.099118887
1288,2822274.4057584984
1414,186197.67322165837
2622,82905879.56084219
2887,0.0
2952,98586088.06930056
3016,11757469.207108096
3080,0.0
3105,0.0
3130,37845282.577235128
2,1, 7,21, 0, 7, 0.00,10.00,SummerDesignDay
8,18.537101881263678
10,86246999.79363477
1034,3355754.5148331986
2,1, 7,21, 0, 7,10.00,20.00,SummerDesignDay
8,18.57757443850115
10,86548517.33398551
1034,3355754.5148331986
2,1, 7,21, 0, 7,20.00,30.00,SummerDesignDay
8,18.61798458953381
10,86411741.14890164
1034,3355754.5148331986
2,1, 7,21, 0, 7,30.00,40.00,SummerDesignDay
8,18.658333911289998
10,86307972.29301673
1034,3355754.5148331986
2,1, 7,21, 0, 7,40.00,50.00,SummerDesignDay
8,18.69862167057263
10,86340090.35111903
1034,3355754.5148331986
2,1, 7,21, 0, 7,50.00,60.00,SummerDesignDay
8,18.738848617477435
10,87079134.8868602
1034,3355754.5148331986
2,1, 7,21, 0, 7, 0.00,60.00,SummerDesignDay
1503,24.00031722951344
1543,20.221404937221079
1583,22.85899000033896
1623,22.621357580541014
1663,22.663904812785828
1703,22.666776117662655
1743,22.787522220791844
1783,22.794064497478755
1823,22.777810128475495
1863,24.000167709328509
1903,24.0001669026869
1943,24.00016576612685
1983,23.217111027027966
2011,23.9994079335516
2051,23.661659861168237
2091,24.000001784847798
2131,24.00019043290556
2171,23.856464578250553
2211,22.694898502695766
2251,22.733083598912868
2291,22.742829187615329
2331,22.82089243151798
2371,22.82591757672984
2411,22.806625448650526
2451,24.000489569501054
11,518934455.8075179
47,165347685.07037048
684,111252248.06249604
1035,20134527.08899919
1071,17312252.683240694
1169,10340269.772810406
1288,2822274.4057584984
1414,0.0
2622,83868960.31564929
2887,0.0
2952,98586088.06930056
3016,11575983.93729332
3080,0.0
3105,0.0
3130,37963220.57959782
2,1, 7,21, 0, 8, 0.00,10.00,SummerDesignDay
8,18.83629269116922
10,86964869.89814826
1034,3355754.5148331986
2,1, 7,21, 0, 8,10.00,20.00,SummerDesignDay
8,18.933373866377467
10,86696337.40109337
1034,6190635.889676788
2,1, 7,21, 0, 8,20.00,30.00,SummerDesignDay
8,19.030100431962337
10,86723955.40437632
1034,8569757.445318403
2,1, 7,21, 0, 8,30.00,40.00,SummerDesignDay
8,19.126477760517348
10,85896190.3010199
1034,3355754.5148331986
2,1, 7,21, 0, 8,40.00,50.00,SummerDesignDay
8,19.222499141640978
10,86139568.52953345
1034,3355754.5148331986
2,1, 7,21, 0, 8,50.00,60.00,SummerDesignDay
8,19.31817148940951
10,85998260.66994179
1034,3355754.5148331986
2,1, 7,21, 0, 8, 0.00,60.00,SummerDesignDay
1503,24.000265248660005
1543,20.488330950295393
1583,22.899383790877989
1623,22.779176022940164
1663,22.80106497776151
1703,22.806454586907468
1743,22.8245516439169
1783,22.831834639055928
1823,22.877841713372168
1863,24.000161193032399
1903,24.000188043946737
1943,24.000185852338917
1983,23.70078534490079
2011,23.999942839609444
2051,23.990453537294856
2091,24.000066233501387
2131,24.000183279417415
2171,23.974273480403509
2211,22.78544142365526
2251,22.832247922657915
2291,22.849965261455073
2331,22.90331934204117
2371,22.90991143874723
2411,22.833257176303879
2451,24.000521634075299
11,518419182.20411309
47,163376717.40343515
684,111252248.06249604
1035,28183411.39432798
1071,17312252.683240694
1169,10451465.041124074
1288,10871158.711087294
1414,186203.7464374606
2622,85389977.36564908
2887,0.0
2952,98586088.06930056
3016,11133018.861159452
3080,0.0
3105,0.0
3130,38043463.65451131
2,1, 7,21, 0, 9, 0.00,10.00,SummerDesignDay
8,19.42469174933969
10,118081527.45210573
1034,26318156.19132342
2,1, 7,21, 0, 9,10.00,20.00,SummerDesignDay
8,19.53078125038087
10,121406479.65699403
1034,26683766.153047828
2,1, 7,21, 0, 9,20.00,30.00,SummerDesignDay
8,19.636442897932985
10,123436714.83034843
1034,29038858.243699347
2,1, 7,21, 0, 9,30.00,40.00,SummerDesignDay
8,19.741675401000007
10,124965739.20298058
1034,23962748.57024322
2,1, 7,21, 0, 9,40.00,50.00,SummerDesignDay
8,19.846490810146379
10,126571990.46876577
1034,30898208.51763562
2,1, 7,21, 0, 9,50.00,60.00,SummerDesignDay
8,19.95088720255653
10,127886684.52322872
1034,22110694.92167728
2,1, 7,21, 0, 9, 0.00,60.00,SummerDesignDay
1503,24.000324206896278
1543,20.7779780265049
1583,23.945560414097384
1623,23.94013872955223
1663,23.9339137613201
1703,23.935148407225105
1743,23.93295559921979
1783,23.93441389404589
1823,23.94572721575771
1863,24.000201799491124
1903,24.00020076151887
1943,24.000199051569174
1983,23.99967915447053
2011,23.999299948711184
2051,24.000272541828648
2091,24.000133947549587
2131,24.00018512579388
2171,24.000096546243129
2211,23.93490084329923
2251,23.93820162915533
2291,23.942390246686587
2331,23.94975394207054
2371,23.951132810178735
2411,23.934103387880496
2451,24.00079350518041
11,742349136.1344233
47,160356639.43827919
684,275315968.6899372
1035,159012432.59762673
1071,129841895.12430518
1169,10561893.608924045
1288,29170537.47332153
1414,0.0
2622,110853455.20847319
2887,0.0
2952,130056188.96027392
3016,13751693.929160776
3080,0.0
3105,0.0
3130,41453296.29937514
2,1, 7,21, 0,10, 0.00,10.00,SummerDesignDay
8,20.043938394252824
10,129032298.86581275
1034,31827352.27948314
2,1, 7,21, 0,10,10.00,20.00,SummerDesignDay
8,20.13666352378996
10,130520466.63723104
1034,31808681.134533027
2,1, 7,21, 0,10,20.00,30.00,SummerDesignDay
8,20.229054404149026
10,132184271.46611852
1034,31670903.885420927
2,1, 7,21, 0,10,30.00,40.00,SummerDesignDay
8,20.32111787460019
10,133816811.27281255
1034,24454442.935445187
2,1, 7,21, 0,10,40.00,50.00,SummerDesignDay
8,20.4128605388349
10,134238577.76256616
1034,29579959.9474007
2,1, 7,21, 0,10,50.00,60.00,SummerDesignDay
8,20.504275233013236
10,135402937.14976628
1034,31792332.282730946
2,1, 7,21, 0,10, 0.00,60.00,SummerDesignDay
1503,24.00030007384859
1543,23.801657983141327
1583,23.999186526140464
1623,23.999571439980654
1663,23.999507915697465
1703,23.999552276204736
1743,23.999260366493819
1783,23.999263557336439
1823,23.99929712890714
1863,24.00020545599081
1903,24.000206548963776
1943,24.000208155560548
1983,23.999917168720449
2011,23.999407865653209
2051,24.000091061483244
2091,24.000321413574104
2131,24.00020717493035
2171,24.000214715632877
2211,23.99939322657177
2251,23.999357700790246
2291,23.99937668086457
2331,23.99917887132545
2371,23.99918510993761
2411,23.999153918326529
2451,24.0004015181664
11,795195363.1543071
47,157880906.28681288
684,275315968.6899372
1035,181133672.46501393
1071,129841895.12430518
1169,10741039.198817604
1288,51291777.34070873
1414,186209.8046289157
2622,126765166.74655473
2887,0.0
2952,163463949.91744883
3016,16716268.57870061
3080,0.0
3105,0.0
3130,44125853.93140675
2,1, 7,21, 0,11, 0.00,10.00,SummerDesignDay
8,20.58466970196811
10,139158871.62582375
1034,39117406.37570971
2,1, 7,21, 0,11,10.00,20.00,SummerDesignDay
8,20.664814937499306
10,140046727.77213679
1034,39132236.55031799
2,1, 7,21, 0,11,20.00,30.00,SummerDesignDay
8,20.744713253283366
10,140772167.3313536
1034,39134391.11608524
2,1, 7,21, 0,11,30.00,40.00,SummerDesignDay
8,20.82435965313786
10,141503495.97589479
1034,39136451.543406467
2,1, 7,21, 0,11,40.00,50.00,SummerDesignDay
8,20.903765690595486
10,142181438.08789093
1034,38896722.82314055
2,1, 7,21, 0,11,50.00,60.00,SummerDesignDay
8,20.98292817949907
10,142808230.15324594
1034,33743184.390389498
2,1, 7,21, 0,11, 0.00,60.00,SummerDesignDay
1503,24.0003494894232
1543,23.99140544857629
1583,23.99896655880147
1623,23.999822933883498
1663,23.99997605789403
1703,23.999929451107268
1743,23.99951093781117
1783,23.999513471201355
1823,23.999548923060105
1863,24.00057001754148
1903,24.000575821122327
1943,24.000562556795289
1983,23.999993269014497
2011,23.99916702446028
2051,24.00023664770967
2091,24.000397696319778
2131,24.000516790025136
2171,24.00050989269316
2211,23.99973972978627
2251,23.999473011148515
2291,23.9994932367777
2331,23.9989357532022
2371,23.998942603713549
2411,23.998957899673085
2451,24.00045569979486
11,846470930.9463458
47,158235323.7956479
684,289719372.49674478
1035,229160392.79904945
1071,173122526.83240698
1169,10897994.972379351
1288,56037865.9666425
1414,0.0
2622,139889462.16390664
2887,0.0
2952,185149230.06254144
3016,18307502.052025577
3080,0.0
3105,0.0
3130,44272045.4031002
2,1, 7,21, 0,12, 0.00,10.00,SummerDesignDay
8,21.035566556726136
10,143442612.4896934
1034,38325255.2378067
2,1, 7,21, 0,12,10.00,20.00,SummerDesignDay
8,21.0881016123557
10,143841682.12057815
1034,38761239.014731679
2,1, 7,21, 0,12,20.00,30.00,SummerDesignDay
8,21.14052571583566
10,143357786.77306999
1034,38755651.460593748
2,1, 7,21, 0,12,30.00,40.00,SummerDesignDay
8,21.192842338018033
10,145269735.82679395
1034,38750323.11541551
2,1, 7,21, 0,12,40.00,50.00,SummerDesignDay
8,21.245053215835836
10,145408453.48118688
1034,38744887.71313738
2,1, 7,21, 0,12,50.00,60.00,SummerDesignDay
8,21.29716249475529
10,145366073.3905781
1034,39355771.09264159
2,1, 7,21, 0,12, 0.00,60.00,SummerDesignDay
1503,24.000423688538765
1543,23.99199597990904
1583,23.999152684848796
1623,24.000051369451286
1663,23.999828718068185
1703,23.999833571874324
1743,23.999656438719055
1783,23.99966192629799
1823,23.999728557180377
1863,24.000392876893284
1903,24.000394348425485
1943,24.000392370131995
1983,23.999907511815314
2011,23.999358777247996
2051,24.000450424846219
2091,24.00047990671565
2131,24.00044383698102
2171,24.00062318313266
2211,24.000284571807005
2251,24.00026043820448
2291,24.000262891956877
2331,23.99906641883428
2371,23.999072566418037
2411,23.999101052659936
2451,24.00049303768078
11,866686344.0819004
47,158036612.8815594
684,289719372.49674478
1035,232693127.63432665
1071,173122526.83240698
1169,11554855.933917944
1288,59570600.801919657
1414,186199.52971698563
2622,145407222.7118985
2887,0.0
2952,197731185.92245353
3016,19039202.80042072
3080,0.0
3105,0.0
3130,45011691.80518863
2,1, 7,21, 0,13, 0.00,10.00,SummerDesignDay
8,21.33877679601146
10,145697512.9871591
1034,41089547.24287348
2,1, 7,21, 0,13,10.00,20.00,SummerDesignDay
8,21.380309385129963
10,146030537.27087189
1034,41943232.72026255
2,1, 7,21, 0,13,20.00,30.00,SummerDesignDay
8,21.421783857470407
10,146332901.40912236
1034,41936322.19224231
2,1, 7,21, 0,13,30.00,40.00,SummerDesignDay
8,21.463191900161545
10,146742817.9407684
1034,41927980.0669314
2,1, 7,21, 0,13,40.00,50.00,SummerDesignDay
8,21.504532269785533
10,147122698.0761293
1034,41919712.51999438
2,1, 7,21, 0,13,50.00,60.00,SummerDesignDay
8,21.54580615714687
10,147664799.2238038
1034,40587961.111146237
2,1, 7,21, 0,13, 0.00,60.00,SummerDesignDay
1503,24.000704789648397
1543,23.992235151292407
1583,23.999982256461239
1623,24.000979186502737
1663,24.000938838561255
1703,24.00093784759225
1743,23.99981131395666
1783,23.999816407252668
1823,23.99981454736131
1863,24.000403995071435
1903,24.00040331682459
1943,24.000404703185937
1983,23.999751840579518
2011,23.999951874531303
2051,24.00038892566504
2091,24.000373169574613
2131,24.00039984972922
2171,24.000603798708736
2211,24.00024614348028
2251,24.000203158214349
2291,24.0002127781672
2331,23.99979958009891
2371,23.99980104048618
2411,23.999823300844839
2451,24.000481551315067
11,879591266.9078548
47,158230618.50290398
684,289719372.49674478
1035,249404755.85345037
1071,173122526.83240698
1169,11122715.460285765
1288,76282229.0210434
1414,0.0
2622,149612664.74564673
2887,0.0
2952,206073502.02882985
3016,19421372.842978769
3080,0.0
3105,0.0
3130,45411020.83046498
2,1, 7,21, 0,14, 0.00,10.00,SummerDesignDay
8,21.57156604182208
10,144973688.53982035
1034,25557006.993466036
2,1, 7,21, 0,14,10.00,20.00,SummerDesignDay
8,21.597303384028846
10,145052725.13665236
1034,25577936.39028748
2,1, 7,21, 0,14,20.00,30.00,SummerDesignDay
8,21.623010781323559
10,145111150.68820877
1034,25580434.824663685
2,1, 7,21, 0,14,30.00,40.00,SummerDesignDay
8,21.64869696245155
10,145367225.83647735
1034,25582985.535167189
2,1, 7,21, 0,14,40.00,50.00,SummerDesignDay
8,21.67435692441955
10,145294583.48361195
1034,25585522.16351118
2,1, 7,21, 0,14,50.00,60.00,SummerDesignDay
8,21.69998698758931
10,145388899.60219834
1034,25588042.494871856
2,1, 7,21, 0,14, 0.00,60.00,SummerDesignDay
1503,24.00042180860709
1543,23.992381026996197
1583,24.000060858741205
1623,24.00058924057542
1663,24.000565773937834
1703,24.00056782239622
1743,24.000177482267277
1783,24.000178677115448
1823,24.00017676237941
1863,24.000447837638803
1903,24.000448746568883
1943,24.00044184467112
1983,23.999883471113209
2011,23.99974925813648
2051,24.0002298904861
2091,24.000407531417
2131,24.000404426286676
2171,24.000617353720686
2211,24.00033859042664
2251,24.000304090949827
2291,24.000312257250458
2331,24.000058287210665
2371,24.000057874872004
2411,24.000067646357154
2451,24.00051425842255
11,871188273.2869691
47,159150577.37615506
684,275315968.6899372
1035,153471928.40196745
1071,86561263.41620349
1169,11168225.595686675
1288,66910664.98576395
1414,186205.5989246303
2622,150893104.99105863
2887,0.0
2952,209424362.09927327
3016,19405408.328031038
3080,0.0
3105,0.0
3130,45644420.60790265
2,1, 7,21, 0,15, 0.00,10.00,SummerDesignDay
8,21.69998698758931
10,145389264.81927378
1034,24712271.076121876
2,1, 7,21, 0,15,10.00,20.00,SummerDesignDay
8,21.69998698758931
10,145352725.73304308
1034,24624785.70028323
2,1, 7,21, 0,15,20.00,30.00,SummerDesignDay
8,21.69998698758931
10,145274482.80508007
1034,24627848.349658725
2,1, 7,21, 0,15,30.00,40.00,SummerDesignDay
8,21.69998698758931
10,145163294.57765083
1034,24631182.84316516
2,1, 7,21, 0,15,40.00,50.00,SummerDesignDay
8,21.69998698758931
10,144445767.63519103
1034,22334819.825832767
2,1, 7,21, 0,15,50.00,60.00,SummerDesignDay
8,21.69998698758931
10,145191465.00050087
1034,17868087.705710748
2,1, 7,21, 0,15, 0.00,60.00,SummerDesignDay
1503,24.00041189212463
1543,23.99241383334672
1583,24.000107981026479
1623,24.001336029442514
1663,24.0009057364271
1703,24.000908258160306
1743,24.00041661997038
1783,24.000417771368615
1823,24.000435177339218
1863,24.00041747455629
1903,24.000418879092949
1943,24.000415817820089
1983,23.99961102995952
2011,24.000381452102287
2051,24.00027680931424
2091,24.000598969038845
2131,24.000566198048764
2171,24.000641125510929
2211,24.0005636032205
2251,24.00054858667727
2291,24.000549998360186
2331,24.00005586365383
2371,24.000055473808826
2411,24.000105841548416
2451,24.00068111686859
11,870817000.5707398
47,159119994.2649888
684,275315968.6899372
1035,138798995.5007725
1071,86561263.41620349
1169,11181266.433906666
1288,52237732.08456902
1414,0.0
2622,151773901.55267466
2887,0.0
2952,208734001.79038716
3016,19227255.6073039