Program Version,EnergyPlus, Version 9.1.0-08d2e308bb, YMD=2019.04.09 23:03
1,5,Environment Title[],Latitude[deg],Longitude[deg],Time Zone[],Elevation[m]
2,8,Day of Simulation[],Month[],Day of Month[],DST Indicator[1=yes 0=no],Hour[],StartMinute[],EndMinute[],DayType
3,5,Cumulative Day of Simulation[],Month[],Day of Month[],DST Indicator[1=yes 0=no],DayType  ! When Daily Report Variables Requested
4,2,Cumulative Days of Simulation[],Month[]  ! When Monthly Report Variables Requested
5,1,Cumulative Days of Simulation[] ! When Run Period Report Variables Requested
6,1,Calendar Year of Simulation[] ! When Annual Report Variables Requested
7,9,Environment,Site Outdoor Air Drybulb Temperature [C] !Monthly [Value,Min,Day,Hour,Minute,Max,Day,Hour,Minute]
8,1,Environment,Site Outdoor Air Wetbulb Temperature [C] !TimeStep
938,1,CORE_BOTTOM ZN,Zone Air Temperature [C] !Hourly
939,7,CORE_BOTTOM ZN,Zone Air Relative Humidity [%] !Daily [Value,Min,Hour,Minute,Max,Hour,Minute]
978,1,CORE_MID ZN,Zone Air Temperature [C] !Hourly
979,7,CORE_MID ZN,Zone Air Relative Humidity [%] !Daily [Value,Min,Hour,Minute,Max,Hour,Minute]
1018,1,CORE_TOP ZN,Zone Air Temperature [C] !Hourly
1019,7,CORE_TOP ZN,Zone Air Relative Humidity [%] !Daily [Value,Min,Hour,Minute,Max,Hour,Minute]
1058,1,FIRSTFLOOR_PLENUM ZN,Zone Air Temperature [C] !Hourly
1059,7,FIRSTFLOOR_PLENUM ZN,Zone Air Relative Humidity [%] !Daily [Value,Min,Hour,Minute,Max,Hour,Minute]
1098,1,MIDFLOOR_PLENUM ZN,Zone Air Temperature [C] !Hourly
1099,7,MIDFLOOR_PLENUM ZN,Zone Air Relative Humidity [%] !Daily [Value,Min,Hour,Minute,Max,Hour,Minute]
1138,1,PERIMETER_BOT_ZN_1 ZN,Zone Air Temperature [C] !Hourly
1139,7,PERIMETER_BOT_ZN_1 ZN,Zone Air Relative Humidity [%] !Daily [Value,Min,Hour,Minute,Max,Hour,Minute]
1178,1,PERIMETER_BOT_ZN_2 ZN,Zone Air Temperature [C] !Hourly
1179,7,PERIMETER_BOT_ZN_2 ZN,Zone Air Relative Humidity [%] !Daily [Value,Min,Hour,Minute,Max,Hour,Minute]
1218,1,PERIMETER_BOT_ZN_3 ZN,Zone Air Temperature [C] !Hourly
1219,7,PERIMETER_BOT_ZN_3 ZN,Zone Air Relative Humidity [%] !Daily [Value,Min,Hour,Minute,Max,Hour,Minute]
1258,1,PERIMETER_BOT_ZN_4 ZN,Zone Air Temperature [C] !Hourly
1259,7,PERIMETER_BOT_ZN_4 ZN,Zone Air Relative Humidity [%] !Daily [Value,Min,Hour,Minute,Max,Hour,Minute]
1298,1,PERIMETER_MID_ZN_1 ZN,Zone Air Temperature [C] !Hourly
1299,7,PERIMETER_MID_ZN_1 ZN,Zone Air Relative Humidity [%] !Daily [Value,Min,Hour,Minute,Max,Hour,Minute]
1338,1,PERIMETER_MID_ZN_2 ZN,Zone Air Temperature [C] !Hourly
1339,7,PERIMETER_MID_ZN_2 ZN,Zone Air Relative Humidity [%] !Daily [Value,Min,Hour,Minute,Max,Hour,Minute]
1378,1,PERIMETER_MID_ZN_3 ZN,Zone Air Temperature [C] !Hourly
1379,7,PERIMETER_MID_ZN_3 ZN,Zone Air Relative Humidity [%] !Daily [Value,Min,Hour,Minute,Max,Hour,Minute]
1418,1,PERIMETER_MID_ZN_4 ZN,Zone Air Temperature [C] !Hourly
1419,7,PERIMETER_MID_ZN_4 ZN,Zone Air Relative Humidity [%] !Daily [Value,Min,Hour,Minute,Max,Hour,Minute]
1458,1,PERIMETER_TOP_ZN_1 ZN,Zone Air Temperature [C] !Hourly
1459,7,PERIMETER_TOP_ZN_1 ZN,Zone Air Relative Humidity [%] !Daily [Value,Min,Hour,Minute,Max,Hour,Minute]
1498,1,PERIMETER_TOP_ZN_2 ZN,Zone Air Temperature [C] !Hourly
1499,7,PERIMETER_TOP_ZN_2 ZN,Zone Air Relative Humidity [%] !Daily [Value,Min,Hour,Minute,Max,Hour,Minute]
1538,1,PERIMETER_TOP_ZN_3 ZN,Zone Air Temperature [C] !Hourly
1539,7,PERIMETER_TOP_ZN_3 ZN,Zone Air Relative Humidity [%] !Daily [Value,Min,Hour,Minute,Max,Hour,Minute]
1578,1,PERIMETER_TOP_ZN_4 ZN,Zone Air Temperature [C] !Hourly
1579,7,PERIMETER_TOP_ZN_4 ZN,Zone Air Relative Humidity [%] !Daily [Value,Min,Hour,Minute,Max,Hour,Minute]
1618,1,TOPFLOOR_PLENUM ZN,Zone Air Temperature [C] !Hourly
1619,7,TOPFLOOR_PLENUM ZN,Zone Air Relative Humidity [%] !Daily [Value,Min,Hour,Minute,Max,Hour,Minute]
10,1,Electricity:Facility [J] !TimeStep
704,1,Gas:Facility [J] !TimeStep
End of Data Dictionary
1,CHICAGO OHARE INTL AP ANN CLG .4% CONDNS DB=>MWB,  41.98, -87.92,  -6.00, 201.00
2,1, 7,21, 0, 1, 0.00,10.00,SummerDesignDay
8,21.292405530156598
10,80380484.58244671
704,766168.196131842
2,1, 7,21, 0, 1,10.00,20.00,SummerDesignDay
8,21.261960828085749
10,80422435.36638552
704,766168.196131842
2,1, 7,21, 0, 1,20.00,30.00,SummerDesignDay
8,21.2314850100004
10,80455615.04867606
704,766168.196131842
2,1, 7,21, 0, 1,30.00,40.00,SummerDesignDay
8,21.200957900234397
10,80480823.67049946
704,766168.196131842
2,1, 7,21, 0, 1,40.00,50.00,SummerDesignDay
8,21.170403647971147
10,80503284.47454357
704,766168.196131842
2,1, 7,21, 0, 1,50.00,60.00,SummerDesignDay
8,21.13981326633382
10,80518606.03973708
704,766168.196131842
2,1, 7,21, 0, 1, 0.00,60.00,SummerDesignDay
938,26.70075430005134
978,26.700168610950443
1018,26.700162786964328
1058,27.13536193134624
1098,27.124673171091144
1138,26.27358186265798
1178,26.235820979239766
1218,26.19481230044399
1258,26.53054609867351
1298,26.699319355127824
1338,26.69919120709957
1378,26.69937514300155
1418,26.699375427977985
1458,26.699193166721938
1498,26.699081757415127
1538,26.699217615516074
1578,26.699227328385054
1618,26.644662057037949
2,1, 7,21, 0, 2, 0.00,10.00,SummerDesignDay
8,21.11939664133838
10,80542266.64910385
704,766168.196131842
2,1, 7,21, 0, 2,10.00,20.00,SummerDesignDay
8,21.098968297299824
10,80560940.95347807
704,766168.196131842
2,1, 7,21, 0, 2,20.00,30.00,SummerDesignDay
8,21.078518554021277
10,80577109.89518349
704,766168.196131842
2,1, 7,21, 0, 2,30.00,40.00,SummerDesignDay
8,21.05805779383344
10,80591771.74462857
704,766168.196131842
2,1, 7,21, 0, 2,40.00,50.00,SummerDesignDay
8,21.0375756719312
10,80604055.23990077
704,766168.196131842
2,1, 7,21, 0, 2,50.00,60.00,SummerDesignDay
8,21.017081539415206
10,80614829.227936
704,766168.196131842
2,1, 7,21, 0, 2, 0.00,60.00,SummerDesignDay
938,26.700794283521728
978,26.700174930729955
1018,26.70015766700776
1058,27.170173724691784
1098,27.15515952995399
1138,26.293379032485566
1178,26.254507232037157
1218,26.22049852011318
1258,26.519176012136627
1298,26.699315641541216
1338,26.699238534023434
1378,26.699323642432945
1418,26.69937620217749
1458,26.69918008106433
1498,26.699102725841518
1538,26.699178600459804
1578,26.699236763565549
1618,26.682048730764405
2,1, 7,21, 0, 3, 0.00,10.00,SummerDesignDay
8,21.00169730031167
10,80629603.11737214
704,766168.196131842
2,1, 7,21, 0, 3,10.00,20.00,SummerDesignDay
8,20.986303472921795
10,80643652.33848763
704,766168.196131842
2,1, 7,21, 0, 3,20.00,30.00,SummerDesignDay
8,20.970905447932056
10,80656206.00366409
704,766168.196131842
2,1, 7,21, 0, 3,30.00,40.00,SummerDesignDay
8,20.955492745559068
10,80667626.59070088
704,766168.196131842
2,1, 7,21, 0, 3,40.00,50.00,SummerDesignDay
8,20.94007141118511
10,80678611.53205441
704,766168.196131842
2,1, 7,21, 0, 3,50.00,60.00,SummerDesignDay
8,20.924645111828125
10,80688353.56288135
704,766168.196131842
2,1, 7,21, 0, 3, 0.00,60.00,SummerDesignDay
938,26.700506245726968
978,26.700195178222744
1018,26.70019452347745
1058,27.20259488208517
1098,27.18298078956202
1138,26.29611833973785
1178,26.25592419858779
1218,26.229724301266548
1258,26.49226099547862
1298,26.699301424195853
1338,26.699246305837279
1378,26.69930262004094
1418,26.69932926828901
1458,26.699182275090068
1498,26.699111416597704
1538,26.69915348210144
1578,26.6992172308971
1618,26.68496059260387
2,1, 7,21, 0, 4, 0.00,10.00,SummerDesignDay
8,20.909205468285163
10,80697439.51068905
704,766168.196131842
2,1, 7,21, 0, 4,10.00,20.00,SummerDesignDay
8,20.89375644446627
10,80705715.06486705
704,766168.196131842
2,1, 7,21, 0, 4,20.00,30.00,SummerDesignDay
8,20.878302617175487
10,80713320.39575798
704,766168.196131842
2,1, 7,21, 0, 4,30.00,40.00,SummerDesignDay
8,20.862834696278875
10,80720206.80842954
704,766168.196131842
2,1, 7,21, 0, 4,40.00,50.00,SummerDesignDay
8,20.84736758914109
10,80726478.29146971
704,766168.196131842
2,1, 7,21, 0, 4,50.00,60.00,SummerDesignDay
8,20.83187595308267
10,80731864.03208938
704,766168.196131842
2,1, 7,21, 0, 4, 0.00,60.00,SummerDesignDay
938,26.70033622957584
978,26.700183024869124
1018,26.700154187202885
1058,27.233392086965478
1098,27.209210792803604
1138,26.2928479807167
1178,26.251198134575433
1218,26.232928837070224
1258,26.462064747425516
1298,26.699286077687746
1338,26.69924767753822
1378,26.699280605211347
1418,26.69935413305937
1458,26.699151241667065
1498,26.69912115861204
1538,26.699137418039326
1578,26.699206771307499
1618,26.676433695393546
2,1, 7,21, 0, 5, 0.00,10.00,SummerDesignDay
8,20.82154626521223
10,80742903.92994116
704,766168.196131842
2,1, 7,21, 0, 5,10.00,20.00,SummerDesignDay
8,20.811212600492369
10,80753120.80650494
704,766168.196131842
2,1, 7,21, 0, 5,20.00,30.00,SummerDesignDay
8,20.800879423352016
10,80763025.5054809
704,766168.196131842
2,1, 7,21, 0, 5,30.00,40.00,SummerDesignDay
8,20.79053773449398
10,77686941.28059383
704,766168.196131842
2,1, 7,21, 0, 5,40.00,50.00,SummerDesignDay
8,20.780191971271316
10,77105070.38537838
704,766168.196131842
2,1, 7,21, 0, 5,50.00,60.00,SummerDesignDay
8,20.769841693173647
10,75231033.3011858
704,766168.196131842
2,1, 7,21, 0, 5, 0.00,60.00,SummerDesignDay
938,26.7002314850938
978,26.70020708429024
1018,26.700221807620399
1058,27.263355224026716
1098,27.23423409169428
1138,26.299853506582953
1178,26.317244944947914
1218,26.270276252814154
1258,26.445781127443884
1298,26.6993189921684
1338,26.69930888218779
1378,26.699314595502928
1418,26.69934105823833
1458,26.699158730622228
1498,26.699149175108205
1538,26.699151665699707
1578,26.69920016300524
1618,26.666700509328256
2,1, 7,21, 0, 6, 0.00,10.00,SummerDesignDay
8,20.780191971271316
10,70129569.08258106
704,766168.196131842
2,1, 7,21, 0, 6,10.00,20.00,SummerDesignDay
8,20.79053773449398
10,69384309.9932588
704,766168.196131842
2,1, 7,21, 0, 6,20.00,30.00,SummerDesignDay
8,20.800879423352016
10,69016926.56500653
704,766168.196131842
2,1, 7,21, 0, 6,30.00,40.00,SummerDesignDay
8,20.811212600492369
10,68942135.78035793
704,766168.196131842
2,1, 7,21, 0, 6,40.00,50.00,SummerDesignDay
8,20.82154626521223
10,69152709.60295199
704,766168.196131842
2,1, 7,21, 0, 6,50.00,60.00,SummerDesignDay
8,20.83187595308267
10,69590489.07026565
704,766168.196131842
2,1, 7,21, 0, 6, 0.00,60.00,SummerDesignDay
938,28.910283429349737
978,27.37099070097372
1018,27.309279883151736
1058,27.360786722984359
1098,27.31018386707792
1138,26.37702138503755
1178,27.72852224613999
1218,26.67624616380894
1258,26.518522197516988
1298,27.02356553373858
1338,28.264025856241856
1378,27.327910770875364
1418,27.111952698820308
1458,26.943724996214809
1498,28.19365010446104
1538,27.245511422413207
1578,27.030565032842163
1618,26.7945404255191
2,1, 7,21, 0, 7, 0.00,10.00,SummerDesignDay
8,20.867991483822359
10,92385412.14508794
704,766168.196131842
2,1, 7,21, 0, 7,10.00,20.00,SummerDesignDay
8,20.904056518827426
10,88022933.55197928
704,766168.196131842
2,1, 7,21, 0, 7,20.00,30.00,SummerDesignDay
8,20.94007141118511
10,84112721.5450204
704,766168.196131842
2,1, 7,21, 0, 7,30.00,40.00,SummerDesignDay
8,20.976035719324256
10,86400381.72797857
704,766168.196131842
2,1, 7,21, 0, 7,40.00,50.00,SummerDesignDay
8,21.011954667733219
10,84734204.05976697
704,766168.196131842
2,1, 7,21, 0, 7,50.00,60.00,SummerDesignDay
8,21.04781854686137
10,84631742.3555902
704,766168.196131842
2,1, 7,21, 0, 7, 0.00,60.00,SummerDesignDay
938,25.309513040064233
978,25.1288652164833
1018,25.120624798686327
1058,27.503339451754554
1098,27.447027078960585
1138,25.02143000970661
1178,25.120285877417918
1218,25.065567516114766
1258,25.00138544625592
1298,25.04112577589308
1338,25.138945488460157
1378,25.106931921286689
1418,25.031931190970015
1458,25.0373600089345
1498,25.139636827640037
1538,25.089054910343095
1578,25.026523702799826
1618,27.294244379154745
2,1, 7,21, 0, 8, 0.00,10.00,SummerDesignDay
8,21.13471110025821
10,99706931.39412976
704,766168.196131842
2,1, 7,21, 0, 8,10.00,20.00,SummerDesignDay
8,21.221309664954885
10,97420972.74533293
704,766168.196131842
2,1, 7,21, 0, 8,20.00,30.00,SummerDesignDay
8,21.307616677758387
10,95291581.05819382
704,766168.196131842
2,1, 7,21, 0, 8,30.00,40.00,SummerDesignDay
8,21.393633962021306
10,92487813.49813658
704,766168.196131842
2,1, 7,21, 0, 8,40.00,50.00,SummerDesignDay
8,21.479363454901848
10,92353416.75818046
704,766168.196131842
2,1, 7,21, 0, 8,50.00,60.00,SummerDesignDay
8,21.56480572828825
10,91756807.64832884
704,766168.196131842
2,1, 7,21, 0, 8, 0.00,60.00,SummerDesignDay
938,24.113250535352447
978,24.094730613331199
1018,24.091186922236447
1058,27.405894118439467
1098,27.384459017975144
1138,24.014094784260825
1178,24.082604353163619
1218,24.0542786194125
1258,24.008767286483079
1298,24.01831248168855
1338,24.083694077036584
1378,24.06237792079311
1418,24.010282428014916
1458,24.014230151597706
1498,24.082823469750676
1538,24.035460393873774
1578,24.010715190655586
1618,27.619077852650379
2,1, 7,21, 0, 9, 0.00,10.00,SummerDesignDay
8,21.659959494127649
10,91688944.67540124
704,766168.196131842
2,1, 7,21, 0, 9,10.00,20.00,SummerDesignDay
8,21.754763580187868
10,91808900.92973829
704,766168.196131842
2,1, 7,21, 0, 9,20.00,30.00,SummerDesignDay
8,21.849216689035449
10,92029136.16291423
704,766168.196131842
2,1, 7,21, 0, 9,30.00,40.00,SummerDesignDay
8,21.94331558480392
10,92314144.47971134
704,766168.196131842
2,1, 7,21, 0, 9,40.00,50.00,SummerDesignDay
8,22.03707130951595
10,92640817.9940492
704,766168.196131842
2,1, 7,21, 0, 9,50.00,60.00,SummerDesignDay
8,22.13048294716832
10,93022366.55492957
704,766168.196131842
2,1, 7,21, 0, 9, 0.00,60.00,SummerDesignDay
938,23.998826175227348
978,23.9990783894291
1018,23.99884123501811
1058,27.36119466411617
1098,27.34504795745389
1138,23.99926770947923
1178,24.00024651428627
1218,23.99928990272183
1258,23.999762794111139
1298,23.998959261791247
1338,24.000591523550594
1378,23.99890262627447
1418,23.999551302027589
1458,23.999047212644638
1498,23.999970261832
1538,23.999400072813406
1578,23.99972269358852
1618,28.152639295046499
2,1, 7,21, 0,10, 0.00,10.00,SummerDesignDay
8,22.213769814432565
10,93363485.96667826
704,766168.196131842
2,1, 7,21, 0,10,10.00,20.00,SummerDesignDay
8,22.29678365659492
10,93701501.07179149
704,766168.196131842
2,1, 7,21, 0,10,20.00,30.00,SummerDesignDay
8,22.379526518080718
10,94028970.45447076
704,766168.196131842
2,1, 7,21, 0,10,30.00,40.00,SummerDesignDay
8,22.461998883090386
10,94355635.39589128
704,766168.196131842
2,1, 7,21, 0,10,40.00,50.00,SummerDesignDay
8,22.54420357090447
10,94665532.92813216
704,766168.196131842
2,1, 7,21, 0,10,50.00,60.00,SummerDesignDay
8,22.626140889876245
10,94965922.03208854
704,766168.196131842
2,1, 7,21, 0,10, 0.00,60.00,SummerDesignDay
938,23.9989701760942
978,23.999304770706006
1018,23.998890271245587
1058,27.371892960043124
1098,27.35510844304646
1138,23.99868623101158
1178,23.999609468645777
1218,23.99902634477714
1258,23.999854409492504
1298,23.998928589748716
1338,23.999676643736355
1378,23.998751025407768
1418,23.999464873636929
1458,23.999037925391563
1498,23.999915032069965
1538,23.99893741993301
1578,23.999545978567498
1618,28.839188954908435
2,1, 7,21, 0,11, 0.00,10.00,SummerDesignDay
8,22.698217126852719
10,95212568.713257
704,766168.196131842
2,1, 7,21, 0,11,10.00,20.00,SummerDesignDay
8,22.770087609245694
10,95443697.23749066
704,766168.196131842
2,1, 7,21, 0,11,20.00,30.00,SummerDesignDay
8,22.841753902583265
10,95653034.85007693
704,766168.196131842
2,1, 7,21, 0,11,30.00,40.00,SummerDesignDay
8,22.913216778184393
10,95853017.52771889
704,766168.196131842
2,1, 7,21, 0,11,40.00,50.00,SummerDesignDay
8,22.984480922747989
10,96039565.03658901
704,766168.196131842
2,1, 7,21, 0,11,50.00,60.00,SummerDesignDay
8,23.055539233117515
10,96222236.55242519
704,766168.196131842
2,1, 7,21, 0,11, 0.00,60.00,SummerDesignDay
938,23.998982056691749
978,23.99934411036794
1018,23.99879882257683
1058,27.3793753708005
1098,27.362855250444313
1138,23.99845290587676
1178,23.998742663840646
1218,23.99885898440617
1258,23.999640692452716
1298,23.998300941522673
1338,23.998498386449105
1378,23.998655458872375
1418,23.999720373753154
1458,23.99828464734418
1498,23.998460627084854
1538,23.998658736266817
1578,23.999339302284026
1618,29.51269216953187
2,1, 7,21, 0,12, 0.00,10.00,SummerDesignDay
8,23.102801503400955
10,96308468.21560404
704,766168.196131842
2,1, 7,21, 0,12,10.00,20.00,SummerDesignDay
8,23.149970529930298
10,96399951.34316334
704,766168.196131842
2,1, 7,21, 0,12,20.00,30.00,SummerDesignDay
8,23.197054535495359
10,96491231.35539028
704,766168.196131842
2,1, 7,21, 0,12,30.00,40.00,SummerDesignDay
8,23.24405091760279
10,96606254.10625758
704,766168.196131842
2,1, 7,21, 0,12,40.00,50.00,SummerDesignDay
8,23.290959239877084
10,96734461.61569946
704,5071877.564870933
2,1, 7,21, 0,12,50.00,60.00,SummerDesignDay
8,23.337780161397366
10,96913438.12361463
704,766168.196131842
2,1, 7,21, 0,12, 0.00,60.00,SummerDesignDay
938,23.99899341490998
978,23.999376361407785
1018,23.998748182416539
1058,27.377487323298707
1098,27.363623007162475
1138,23.998749889860738
1178,24.000300661199487
1218,23.99879257596436
1258,23.999466673142455
1298,23.999203798723653
1338,23.999216043901556
1378,23.99862443965416
1418,24.000263841101917
1458,23.999158147828739
1498,23.998015406460796
1538,23.99854288481136
1578,24.000485009538396
1618,30.059721667102044
2,1, 7,21, 0,13, 0.00,10.00,SummerDesignDay
8,23.375168696321454
10,97135711.4924068
704,766168.196131842
2,1, 7,21, 0,13,10.00,20.00,SummerDesignDay
8,23.412509317763463
10,97407440.8494878
704,5150895.423050917
2,1, 7,21, 0,13,20.00,30.00,SummerDesignDay
8,23.44978183331926
10,97703543.41720259
704,766168.196131842
2,1, 7,21, 0,13,30.00,40.00,SummerDesignDay
8,23.48701638811906
10,98016522.51110074
704,5164588.294200774
2,1, 7,21, 0,13,40.00,50.00,SummerDesignDay
8,23.52417733438429
10,98338751.18079093
704,766168.196131842
2,1, 7,21, 0,13,50.00,60.00,SummerDesignDay
8,23.561301163043504
10,98671945.92699118
704,766168.196131842
2,1, 7,21, 0,13, 0.00,60.00,SummerDesignDay
938,23.9989979300406
978,23.99940577581655
1018,23.99873324118136
1058,27.369513572160938
1098,27.362109963568704
1138,24.00001403262796
1178,23.99872656119673
1218,23.9987468185571
1258,23.999519458717335
1298,23.999571927617017
1338,23.998488085999346
1378,23.998599455342619
1418,23.999556223499245
1458,23.999314912821988
1498,23.998269848445763
1538,23.99849097138612
1578,23.999486638594786
1618,30.42260496314162
2,1, 7,21, 0,14, 0.00,10.00,SummerDesignDay
8,23.584468652232446
10,98936433.64030326
704,5123183.3207328
2,1, 7,21, 0,14,10.00,20.00,SummerDesignDay
8,23.607614591370639
10,99200996.97481363
704,766168.196131842
2,1, 7,21, 0,14,20.00,30.00,SummerDesignDay
8,23.630734203455029
10,99443813.77962151
704,4522416.0007624099
2,1, 7,21, 0,14,30.00,40.00,SummerDesignDay
8,23.65384967253545
10,99670834.89347723
704,1379359.445359951
2,1, 7,21, 0,14,40.00,50.00,SummerDesignDay
8,23.676931270816597
10,99878152.59222642
704,766168.196131842
2,1, 7,21, 0,14,50.00,60.00,SummerDesignDay
8,23.699991650503447
10,100069049.93780385
704,5128260.404281668
2,1, 7,21, 0,14, 0.00,60.00,SummerDesignDay
938,23.998990246857756
978,23.99941496100914
1018,23.998730684830833
1058,27.36714171369543
1098,27.36651393897709
1138,23.99938237213721
1178,23.99820724686911
1218,23.998709984554979
1258,23.998686300597215
1298,23.999851570843977
1338,23.99785898326193
1378,23.998580223667998
1418,23.99847612831184
1458,24.000273709735283
1498,23.997797137585356
1538,23.998475477029915
1578,23.998667798498713
1618,30.61403595750008
2,1, 7,21, 0,15, 0.00,10.00,SummerDesignDay
8,23.699991650503447
10,100122328.4572855
704,766168.196131842
2,1, 7,21, 0,15,10.00,20.00,SummerDesignDay
8,23.699991650503447
10,100149869.77409421
704,766168.196131842
2,1, 7,21, 0,15,20.00,30.00,SummerDesignDay
8,23.699991650503447
10,100149399.23137136
704,766168.196131842
2,1, 7,21, 0,15,30.00,40.00,SummerDesignDay
8,23.699991650503447
10,100122113.73503337
704,766168.196131842
2,1, 7,21, 0,15,40.00,50.00,SummerDesignDay
8,23.699991650503447
10,100070982.19483005
704,4939675.463642571
2,1, 7,21, 0,15,50.00,60.00,SummerDesignDay
8,23.699991650503447
10,100001406.34311247
704,766168.196131842
2,1, 7,21, 0,15, 0.00,60.00,SummerDesignDay
938,23.99898585163804
978,23.999428888825294
1018,23.99875068424542
1058,27.37195191448146
1098,27.378940010678737
1138,23.99983198988836
1178,23.997974777748355
1218,23.998749887636277
1258,23.998020372082306
1298,23.99956521933097
1338,23.998004022381058
1378,23.99861974641524
1418,23.99793859151859
1458,23.999393755283035
1498,23.998387326693949
1538,23.99853233714353
1578,23.997854994932554
1618,30.627942247676275
2,1, 7,21, 0,16, 0.00,10.00,SummerDesignDay
8,23.672307358563665
10,99736135.47315856
704,766168.196131842
2,1, 7,21, 0,16,10.00,20.00,SummerDesignDay
8,23.64460948071794
10,99487269.72536041
704,766168.196131842
2,1, 7,21, 0,16,20.00,30.00,SummerDesignDay
8,23.61686844545739
10,99221792.79109086
704,766168.196131842
2,1, 7,21, 0,16,30.00,40.00,SummerDesignDay
8,23.589091188236055
10,98945174.51853118
704,4940420.160709349
2,1, 7,21, 0,16,40.00,50.00,SummerDesignDay
8,23.561301163043504
10,98659054.1764199
704,766168.196131842
2,1, 7,21, 0,16,50.00,60.00,SummerDesignDay
8,23.533467080370163
10,98358702.11062
704,766168.196131842
2,1, 7,21, 0,16, 0.00,60.00,SummerDesignDay
938,23.998997873551294
978,23.999473283954094
1018,23.99880752919486
1058,27.372690983919524
1098,27.387789366912487
1138,23.99949314327758
1178,23.998939432041117
1218,23.99898234445817
1258,23.999164355938786
1298,24.00016557863991
1338,23.997645478580905
1378,23.998808696510044
1418,23.99908919137212
1458,24.000200057913273
1498,23.99774476894458
1538,23.99873896249315
1578,23.998940423576653
1618,30.436913424247597
2,1, 7,21, 0,17, 0.00,10.00,SummerDesignDay
8,23.496315172028504
10,98012238.39063841
704,766168.196131842
2,1, 7,21, 0,17,10.00,20.00,SummerDesignDay
8,23.459098962673627
10,97664271.32132061
704,5047679.897896465
2,1, 7,21, 0,17,20.00,30.00,SummerDesignDay
8,23.421835869543999
10,97349452.30829062
704,766168.196131842
2,1, 7,21, 0,17,30.00,40.00,SummerDesignDay
8,23.384509217485939
10,97038541.38395965
704,766168.196131842
2,1, 7,21, 0,17,40.00,50.00,SummerDesignDay
8,23.34713053816139
10,96679291.52816873
704,766168.196131842
2,1, 7,21, 0,17,50.00,60.00,SummerDesignDay
8,23.309695989572697
10,96283970.8276997
704,5023973.642858362
2,1, 7,21, 0,17, 0.00,60.00,SummerDesignDay
938,23.999032514755837
978,23.99955232874909
1018,23.99891546618547
1058,27.358121407835357
1098,27.38008698233053
1138,23.998837219638657
1178,23.99814346181176
1218,23.99912317484878
1258,23.999248700566758
1298,24.00000492655249
1338,23.998925516145236
1378,23.998902749371216
1418,23.999163815751463
1458,24.0001200221419
1498,23.99853836911411
1538,23.998886771592639
1578,23.999232731480139
1618,30.02864162918276
2,1, 7,21, 0,18, 0.00,10.00,SummerDesignDay
8,23.262826699708766
10,95876647.9707875
704,766168.196131842
2,1, 7,21, 0,18,10.00,20.00,SummerDesignDay
8,23.21586584854855
10,95485094.97693555
704,766168.196131842
2,1, 7,21, 0,18,20.00,30.00,SummerDesignDay
8,23.168816376440029
10,95069700.70930036
704,766168.196131842
2,1, 7,21, 0,18,30.00,40.00,SummerDesignDay
8,23.12167829542215
10,94629308.85769351
704,766168.196131842
2,1, 7,21, 0,18,40.00,50.00,SummerDesignDay
8,23.074452033295477
10,94193358.78102216
704,766168.196131842
2,1, 7,21, 0,18,50.00,60.00,SummerDesignDay
8,23.02714043821021
10,93804515.60254814
704,2513008.508499979
2,1, 7,21, 0,18, 0.00,60.00,SummerDesignDay
938,23.999034405485678
978,23.999583277167969
1018,23.999034067408357
1058,27.326108091678547
1098,27.35270209415873
1138,23.99891305098645
1178,23.998537285054906
1218,23.99873267356503
1258,24.000022404712664
1298,23.999955554851714
1338,23.998630267309655
1378,23.998579906975917
1418,24.000043866849994
1458,23.999591772656748
1498,23.99881150986468
1538,23.99869016555299
1578,24.000367616052828
1618,29.437479566607679
2,1, 7,21, 0,19, 0.00,10.00,SummerDesignDay
8,22.955998030729086
10,93161175.13002238
704,3119068.7417744358
2,1, 7,21, 0,19,10.00,20.00,SummerDesignDay
8,22.884656963830858
10,92938947.86739542
704,766168.196131842
2,1, 7,21, 0,19,20.00,30.00,SummerDesignDay
8,22.813112648278538
10,92808199.20299302
704,766168.196131842
2,1, 7,21, 0,19,30.00,40.00,SummerDesignDay
8,22.74136475535084
10,92113082.97910688
704,766168.196131842
2,1, 7,21, 0,19,40.00,50.00,SummerDesignDay
8,22.669412429768046
10,92537251.8558836
704,766168.196131842
2,1, 7,21, 0,19,50.00,60.00,SummerDesignDay
8,22.597249180691447
10,92603796.78365067
704,766168.196131842
2,1, 7,21, 0,19, 0.00,60.00,SummerDesignDay
938,23.999077579517676
978,23.999675570233724
1018,23.999257631244534
1058,27.269724961408686
1098,27.29799787745297
1138,23.998738722827829
1178,23.999729835518115
1218,23.999426859537964
1258,23.999531869421575
1298,23.999612564225705
1338,23.998961849471603
1378,23.999232992319237
1418,23.99917177861933
1458,23.998674636730898
1498,23.99869265295156
1538,23.999514887790697
1578,23.999612402431937
1618,28.701410843280553
2,1, 7,21, 0,20, 0.00,10.00,SummerDesignDay
8,22.54420357090447
10,93966867.6044896
704,766168.196131842
2,1, 7,21, 0,20,10.00,20.00,SummerDesignDay
8,22.49104180927024
10,98295107.27323203
704,766168.196131842
2,1, 7,21, 0,20,20.00,30.00,SummerDesignDay
8,22.437767475426619
10,97829240.61838596
704,766168.196131842
2,1, 7,21, 0,20,30.00,40.00,SummerDesignDay
8,22.384385775235136
10,97460759.71539763
704,766168.196131842
2,1, 7,21, 0,20,40.00,50.00,SummerDesignDay
8,22.33088606837434
10,97122795.62157156
704,766168.196131842
2,1, 7,21, 0,20,50.00,60.00,SummerDesignDay
8,22.277273112035258
10,96820268.21268809
704,766168.196131842
2,1, 7,21, 0,20, 0.00,60.00,SummerDesignDay
938,23.999261149403187
978,23.999997644009246
1018,23.999731972034053
1058,27.183897252924074
1098,27.209416688461518
1138,23.998990087402296
1178,23.999333218890035
1218,23.99992197822643
1258,23.999861853926008
1298,23.99984998370222
1338,23.999955837659795
1378,23.999650983240515
1418,23.998981236845073
1458,23.998752765637936
1498,23.999130446894659
1538,24.00038025548046
1578,23.999516793966675
1618,27.832743479771368
2,1, 7,21, 0,21, 0.00,10.00,SummerDesignDay
8,22.233324669547739
10,96561169.46966136
704,766168.196131842
2,1, 7,21, 0,21,10.00,20.00,SummerDesignDay
8,22.189299394088044
10,96321066.77880985
704,766168.196131842
2,1, 7,21, 0,21,20.00,30.00,SummerDesignDay
8,22.145202107551495
10,96087149.19168015
704,766168.196131842
2,1, 7,21, 0,21,30.00,40.00,SummerDesignDay
8,22.101023102268618
10,95869045.88865844
704,766168.196131842
2,1, 7,21, 0,21,40.00,50.00,SummerDesignDay
8,22.056767334331388
10,95657936.66738291
704,766168.196131842
2,1, 7,21, 0,21,50.00,60.00,SummerDesignDay
8,22.012434213349633
10,95457989.91629049
704,766168.196131842
2,1, 7,21, 0,21, 0.00,60.00,SummerDesignDay
938,23.99936233106055
978,23.999244347255428
1018,23.999995354470248
1058,27.085561197244976
1098,27.109645336803394
1138,23.999806566766357
1178,23.999213291751024
1218,23.999459472490174
1258,23.999771426872756
1298,24.000216197728464
1338,24.00000460047802
1378,23.999361395431149
1418,23.9989846526778
1458,23.999325776531589
1498,23.9999322766659
1538,23.999457695279248
1578,23.999763177724679
1618,27.066304739788078
2,1, 7,21, 0,22, 0.00,10.00,SummerDesignDay
8,21.96802372811924
10,95258871.22371149
704,766168.196131842
2,1, 7,21, 0,22,10.00,20.00,SummerDesignDay
8,21.92353584370884
10,95067829.69396489
704,766168.196131842
2,1, 7,21, 0,22,20.00,30.00,SummerDesignDay
8,21.878969210749209
10,94882276.75099002
704,766168.196131842
2,1, 7,21, 0,22,30.00,40.00,SummerDesignDay
8,21.834324395018095
10,94701377.97242618
704,766168.196131842
2,1, 7,21, 0,22,40.00,50.00,SummerDesignDay
8,21.789601824015393
10,94526612.40052776
704,766168.196131842
2,1, 7,21, 0,22,50.00,60.00,SummerDesignDay
8,21.744800023061559
10,94354221.97633632
704,766168.196131842
2,1, 7,21, 0,22, 0.00,60.00,SummerDesignDay
938,23.99941783357742
978,23.9990349028164
1018,23.999146649756768
1058,26.992945796724205
1098,27.01303363250905
1138,23.99956827467709
1178,23.999171779715668
1218,23.999456300328306
1258,23.999562785650516
1298,23.999481516736866
1338,23.999952090432985
1378,23.99939691706192
1418,24.00000102955357
1458,24.000022217758344
1498,24.000166577463934
1538,23.999434251075717
1578,23.999550794272058
1618,26.53765212798237
2,1, 7,21, 0,23, 0.00,10.00,SummerDesignDay
8,21.709900736545106
10,78568855.69362644
704,766168.196131842
2,1, 7,21, 0,23,10.00,20.00,SummerDesignDay
8,21.67495304215166
10,79454736.4406751
704,766168.196131842
2,1, 7,21, 0,23,20.00,30.00,SummerDesignDay
8,21.639958113829917
10,80007389.68378724
704,766168.196131842
2,1, 7,21, 0,23,30.00,40.00,SummerDesignDay
8,21.604914610606316
10,80439715.02849455
704,766168.196131842
2,1, 7,21, 0,23,40.00,50.00,SummerDesignDay
8,21.569819097467279
10,81356897.81098517
704,766168.196131842
2,1, 7,21, 0,23,50.00,60.00,SummerDesignDay
8,21.534679356042316
10,81494120.41451207
704,766168.196131842
2,1, 7,21, 0,23, 0.00,60.00,SummerDesignDay
938,26.494912477044094
978,26.049614973117884
1018,26.040714087333048
1058,26.98446925133516
1098,26.97269491266158
1138,25.566344663762668
1178,25.547817887068633
1218,25.502071169919416
1258,25.820885404582339
1298,26.075194859046478
1338,26.068528671103253
1378,26.013867720494358
1418,26.231923193468508
1458,26.059550397300684
1498,26.052776161211683
1538,25.99184378601736
1578,26.221972665373757
1618,26.32104568505279
2,1, 7,21, 0,24, 0.00,10.00,SummerDesignDay
8,21.49949053597118
10,81341185.3773401
704,766168.196131842
2,1, 7,21, 0,24,10.00,20.00,SummerDesignDay
8,21.464253674051844
10,81655312.74420582
704,766168.196131842
2,1, 7,21, 0,24,20.00,30.00,SummerDesignDay
8,21.428968817991497
10,81793968.88430254
704,766168.196131842
2,1, 7,21, 0,24,30.00,40.00,SummerDesignDay
8,21.393633962021306
10,81917406.78409355
704,766168.196131842
2,1, 7,21, 0,24,40.00,50.00,SummerDesignDay
8,21.3582466871985
10,81986959.07334042
704,766168.196131842