Program Version,EnergyPlus, Version 9.0.1-bb7ca4f0da, YMD=2018.11.01 11:35
1,5,Environment Title[],Latitude[deg],Longitude[deg],Time Zone[],Elevation[m]
2,8,Day of Simulation[],Month[],Day of Month[],DST Indicator[1=yes 0=no],Hour[],StartMinute[],EndMinute[],DayType
3,5,Cumulative Day of Simulation[],Month[],Day of Month[],DST Indicator[1=yes 0=no],DayType  ! When Daily Report Variables Requested
4,2,Cumulative Days of Simulation[],Month[]  ! When Monthly Report Variables Requested
5,1,Cumulative Days of Simulation[] ! When Run Period Report Variables Requested
6,1,Calendar Year of Simulation[] ! When Annual Report Variables Requested
7,9,Environment,Site Outdoor Air Drybulb Temperature [C] !Monthly [Value,Min,Day,Hour,Minute,Max,Day,Hour,Minute]
8,1,Environment,Site Outdoor Air Wetbulb Temperature [C] !TimeStep
1128,1,TZ_CORE_BOTTOM,Zone Air Temperature [C] !Hourly
1129,7,TZ_CORE_BOTTOM,Zone Air Relative Humidity [%] !Daily [Value,Min,Hour,Minute,Max,Hour,Minute]
1168,1,TZ_CORE_GROUND,Zone Air Temperature [C] !Hourly
1169,7,TZ_CORE_GROUND,Zone Air Relative Humidity [%] !Daily [Value,Min,Hour,Minute,Max,Hour,Minute]
1208,1,TZ_CORE_MID,Zone Air Temperature [C] !Hourly
1209,7,TZ_CORE_MID,Zone Air Relative Humidity [%] !Daily [Value,Min,Hour,Minute,Max,Hour,Minute]
1248,1,TZ_CORE_TOP,Zone Air Temperature [C] !Hourly
1249,7,TZ_CORE_TOP,Zone Air Relative Humidity [%] !Daily [Value,Min,Hour,Minute,Max,Hour,Minute]
1288,1,TZ_FIRSTFLOOR_PLENUM,Zone Air Temperature [C] !Hourly
1289,7,TZ_FIRSTFLOOR_PLENUM,Zone Air Relative Humidity [%] !Daily [Value,Min,Hour,Minute,Max,Hour,Minute]
1328,1,TZ_GROUNDFLOOR_PLENUM,Zone Air Temperature [C] !Hourly
1329,7,TZ_GROUNDFLOOR_PLENUM,Zone Air Relative Humidity [%] !Daily [Value,Min,Hour,Minute,Max,Hour,Minute]
1368,1,TZ_MIDFLOOR_PLENUM,Zone Air Temperature [C] !Hourly
1369,7,TZ_MIDFLOOR_PLENUM,Zone Air Relative Humidity [%] !Daily [Value,Min,Hour,Minute,Max,Hour,Minute]
1408,1,TZ_PERIMETER_BOT_ZN_1,Zone Air Temperature [C] !Hourly
1409,7,TZ_PERIMETER_BOT_ZN_1,Zone Air Relative Humidity [%] !Daily [Value,Min,Hour,Minute,Max,Hour,Minute]
1448,1,TZ_PERIMETER_BOT_ZN_2,Zone Air Temperature [C] !Hourly
1449,7,TZ_PERIMETER_BOT_ZN_2,Zone Air Relative Humidity [%] !Daily [Value,Min,Hour,Minute,Max,Hour,Minute]
1488,1,TZ_PERIMETER_BOT_ZN_3,Zone Air Temperature [C] !Hourly
1489,7,TZ_PERIMETER_BOT_ZN_3,Zone Air Relative Humidity [%] !Daily [Value,Min,Hour,Minute,Max,Hour,Minute]
1528,1,TZ_PERIMETER_BOT_ZN_4,Zone Air Temperature [C] !Hourly
1529,7,TZ_PERIMETER_BOT_ZN_4,Zone Air Relative Humidity [%] !Daily [Value,Min,Hour,Minute,Max,Hour,Minute]
1568,1,TZ_PERIMETER_GROUND_ZN_1,Zone Air Temperature [C] !Hourly
1569,7,TZ_PERIMETER_GROUND_ZN_1,Zone Air Relative Humidity [%] !Daily [Value,Min,Hour,Minute,Max,Hour,Minute]
1608,1,TZ_PERIMETER_GROUND_ZN_2,Zone Air Temperature [C] !Hourly
1609,7,TZ_PERIMETER_GROUND_ZN_2,Zone Air Relative Humidity [%] !Daily [Value,Min,Hour,Minute,Max,Hour,Minute]
1648,1,TZ_PERIMETER_GROUND_ZN_3,Zone Air Temperature [C] !Hourly
1649,7,TZ_PERIMETER_GROUND_ZN_3,Zone Air Relative Humidity [%] !Daily [Value,Min,Hour,Minute,Max,Hour,Minute]
1688,1,TZ_PERIMETER_GROUND_ZN_4,Zone Air Temperature [C] !Hourly
1689,7,TZ_PERIMETER_GROUND_ZN_4,Zone Air Relative Humidity [%] !Daily [Value,Min,Hour,Minute,Max,Hour,Minute]
1728,1,TZ_PERIMETER_MID_ZN_1,Zone Air Temperature [C] !Hourly
1729,7,TZ_PERIMETER_MID_ZN_1,Zone Air Relative Humidity [%] !Daily [Value,Min,Hour,Minute,Max,Hour,Minute]
1768,1,TZ_PERIMETER_MID_ZN_2,Zone Air Temperature [C] !Hourly
1769,7,TZ_PERIMETER_MID_ZN_2,Zone Air Relative Humidity [%] !Daily [Value,Min,Hour,Minute,Max,Hour,Minute]
1808,1,TZ_PERIMETER_MID_ZN_3,Zone Air Temperature [C] !Hourly
1809,7,TZ_PERIMETER_MID_ZN_3,Zone Air Relative Humidity [%] !Daily [Value,Min,Hour,Minute,Max,Hour,Minute]
1848,1,TZ_PERIMETER_MID_ZN_4,Zone Air Temperature [C] !Hourly
1849,7,TZ_PERIMETER_MID_ZN_4,Zone Air Relative Humidity [%] !Daily [Value,Min,Hour,Minute,Max,Hour,Minute]
1888,1,TZ_PERIMETER_TOP_ZN_1,Zone Air Temperature [C] !Hourly
1889,7,TZ_PERIMETER_TOP_ZN_1,Zone Air Relative Humidity [%] !Daily [Value,Min,Hour,Minute,Max,Hour,Minute]
1928,1,TZ_PERIMETER_TOP_ZN_2,Zone Air Temperature [C] !Hourly
1929,7,TZ_PERIMETER_TOP_ZN_2,Zone Air Relative Humidity [%] !Daily [Value,Min,Hour,Minute,Max,Hour,Minute]
1968,1,TZ_PERIMETER_TOP_ZN_3,Zone Air Temperature [C] !Hourly
1969,7,TZ_PERIMETER_TOP_ZN_3,Zone Air Relative Humidity [%] !Daily [Value,Min,Hour,Minute,Max,Hour,Minute]
2008,1,TZ_PERIMETER_TOP_ZN_4,Zone Air Temperature [C] !Hourly
2009,7,TZ_PERIMETER_TOP_ZN_4,Zone Air Relative Humidity [%] !Daily [Value,Min,Hour,Minute,Max,Hour,Minute]
2048,1,TZ_TOPFLOOR_PLENUM,Zone Air Temperature [C] !Hourly
2049,7,TZ_TOPFLOOR_PLENUM,Zone Air Relative Humidity [%] !Daily [Value,Min,Hour,Minute,Max,Hour,Minute]
10,1,Electricity:Facility [J] !TimeStep
894,1,Gas:Facility [J] !TimeStep
End of Data Dictionary
1,CHICAGO OHARE INTL AP ANN CLG .4% CONDNS DB=>MWB,  41.98, -87.92,  -6.00, 201.00
2,1, 7,21, 0, 1, 0.00,10.00,SummerDesignDay
8,21.292405530156598
10,112871636.09777865
894,766168.196131842
2,1, 7,21, 0, 1,10.00,20.00,SummerDesignDay
8,21.261960828085749
10,112901045.28511426
894,766168.196131842
2,1, 7,21, 0, 1,20.00,30.00,SummerDesignDay
8,21.2314850100004
10,112919610.61385753
894,766168.196131842
2,1, 7,21, 0, 1,30.00,40.00,SummerDesignDay
8,21.200957900234397
10,112928969.42209032
894,766168.196131842
2,1, 7,21, 0, 1,40.00,50.00,SummerDesignDay
8,21.170403647971147
10,112931515.66230892
894,766168.196131842
2,1, 7,21, 0, 1,50.00,60.00,SummerDesignDay
8,21.13981326633382
10,112928759.60208068
894,766168.196131842
2,1, 7,21, 0, 1, 0.00,60.00,SummerDesignDay
1128,26.700732376047058
1168,28.30181991589447
1208,26.70013873123557
1248,26.700228702313223
1288,27.27918431778083
1328,27.20603549471276
1368,26.99470459941716
1408,26.699364524183467
1448,26.699268357716595
1488,26.699399326390425
1528,26.69944415735685
1568,27.923242388075555
1608,27.878529189618438
1648,27.800131130774024
1688,28.316639107628008
1728,26.699209501284519
1768,26.699122760511274
1808,26.699230256932795
1848,26.699350546072528
1888,26.69924533134757
1928,26.699126070285219
1968,26.699264339497419
2008,26.699294380080276
2048,26.90895891440502
2,1, 7,21, 0, 2, 0.00,10.00,SummerDesignDay
8,21.11939664133838
10,112940061.37445829
894,766168.196131842
2,1, 7,21, 0, 2,10.00,20.00,SummerDesignDay
8,21.098968297299824
10,112947893.19350834
894,766168.196131842
2,1, 7,21, 0, 2,20.00,30.00,SummerDesignDay
8,21.078518554021277
10,112952342.80235768
894,766168.196131842
2,1, 7,21, 0, 2,30.00,40.00,SummerDesignDay
8,21.05805779383344
10,112955040.69319086
894,766168.196131842
2,1, 7,21, 0, 2,40.00,50.00,SummerDesignDay
8,21.0375756719312
10,112954832.30402674
894,766168.196131842
2,1, 7,21, 0, 2,50.00,60.00,SummerDesignDay
8,21.017081539415206
10,112952933.80345328
894,766168.196131842
2,1, 7,21, 0, 2, 0.00,60.00,SummerDesignDay
1128,26.700379734326878
1168,28.3340169446922
1208,26.70014720068239
1248,26.700221616732337
1288,27.296672955311079
1328,27.210543079301968
1368,27.003180035679546
1408,26.69932538720782
1448,26.69929549506195
1488,26.699335479350194
1528,26.699447068720447
1568,27.825777341640124
1608,27.774856757423618
1648,27.71465066439195
1688,28.16995361012917
1728,26.69917811120632
1768,26.699142306970619
1808,26.699172506567057
1848,26.699265189912045
1888,26.69918332420914
1928,26.699123777343357
1968,26.699162159689498
2008,26.699271711629434
2048,26.82768506960258
2,1, 7,21, 0, 3, 0.00,10.00,SummerDesignDay
8,21.00169730031167
10,112958868.59300983
894,766168.196131842
2,1, 7,21, 0, 3,10.00,20.00,SummerDesignDay
8,20.986303472921795
10,112963344.21695002
894,766168.196131842
2,1, 7,21, 0, 3,20.00,30.00,SummerDesignDay
8,20.970905447932056
10,112964640.9401829
894,766168.196131842
2,1, 7,21, 0, 3,30.00,40.00,SummerDesignDay
8,20.955492745559068
10,112968785.45566878
894,766168.196131842
2,1, 7,21, 0, 3,40.00,50.00,SummerDesignDay
8,20.94007141118511
10,112969610.01266995
894,766168.196131842
2,1, 7,21, 0, 3,50.00,60.00,SummerDesignDay
8,20.924645111828125
10,112970215.27141296
894,766168.196131842
2,1, 7,21, 0, 3, 0.00,60.00,SummerDesignDay
1128,26.700830322005417
1168,28.36062228159138
1208,26.700154532421054
1248,26.700181668683869
1288,27.31995616800724
1328,27.21756519453794
1368,27.02003084509703
1408,26.699347870519078
1448,26.699293901529257
1488,26.699320042208006
1528,26.699427630152106
1568,27.74286348416997
1608,27.686011040605324
1648,27.642379745660379
1688,28.04681074267891
1728,26.699174260298805
1768,26.699141700638966
1808,26.699145072239067
1848,26.699260073480404
1888,26.699134595298529
1928,26.69912224278296
1968,26.699121772205584
2008,26.699231508983006
2048,26.76885578729949
2,1, 7,21, 0, 4, 0.00,10.00,SummerDesignDay
8,20.909205468285163
10,112969954.07184246
894,766168.196131842
2,1, 7,21, 0, 4,10.00,20.00,SummerDesignDay
8,20.89375644446627
10,112968914.93338532
894,766168.196131842
2,1, 7,21, 0, 4,20.00,30.00,SummerDesignDay
8,20.878302617175487
10,112967192.7941033
894,766168.196131842
2,1, 7,21, 0, 4,30.00,40.00,SummerDesignDay
8,20.862834696278875
10,112964350.51867266
894,766168.196131842
2,1, 7,21, 0, 4,40.00,50.00,SummerDesignDay
8,20.84736758914109
10,112961862.09411453
894,766168.196131842
2,1, 7,21, 0, 4,50.00,60.00,SummerDesignDay
8,20.83187595308267
10,112958181.68126853
894,766168.196131842
2,1, 7,21, 0, 4, 0.00,60.00,SummerDesignDay
1128,26.70075499814932
1168,28.383714432646518
1208,26.700171196364648
1248,26.700197988335316
1288,27.345428441306557
1328,27.226501991569469
1368,27.039956015105547
1408,26.699325226906156
1448,26.69929240024017
1488,26.699289515757298
1528,26.699357988757386
1568,27.668725796306917
1608,27.606514545851345
1648,27.57775717607423
1688,27.934217018020236
1728,26.699157967860076
1768,26.69914236483412
1808,26.699137869766106
1848,26.699242823925237
1888,26.69913885458965
1928,26.69910464752319
1968,26.699109831194979
2008,26.699217849879959
2048,26.72406815634729
2,1, 7,21, 0, 5, 0.00,10.00,SummerDesignDay
8,20.82154626521223
10,112963321.46012756
894,766168.196131842
2,1, 7,21, 0, 5,10.00,20.00,SummerDesignDay
8,20.811212600492369
10,112967884.7626589
894,766168.196131842
2,1, 7,21, 0, 5,20.00,30.00,SummerDesignDay
8,20.800879423352016
10,112972253.87462725
894,766168.196131842
2,1, 7,21, 0, 5,30.00,40.00,SummerDesignDay
8,20.79053773449398
10,109915536.19765249
894,766168.196131842
2,1, 7,21, 0, 5,40.00,50.00,SummerDesignDay
8,20.780191971271316
10,109287999.15085143
894,766168.196131842
2,1, 7,21, 0, 5,50.00,60.00,SummerDesignDay
8,20.769841693173647
10,107204530.20293726
894,766168.196131842
2,1, 7,21, 0, 5, 0.00,60.00,SummerDesignDay
1128,26.70041304408518
1168,28.404510607957886
1208,26.70014926025055
1248,26.700203395425836
1288,27.37126741800145
1328,27.2351151657686
1368,27.061117134162975
1408,26.699364940706969
1448,26.699368072362249
1488,26.699362970789769
1528,26.699419837584629
1568,27.62528257688557
1608,27.67217312880941
1648,27.59587539387211
1688,27.85556772879376
1728,26.69920888196424
1768,26.69922392680579
1808,26.69919946199276
1848,26.699265989163963
1888,26.699183130042216
1928,26.69916676808566
1968,26.69917629305463
2008,26.699220373120313
2048,26.68973888571371
2,1, 7,21, 0, 6, 0.00,10.00,SummerDesignDay
8,20.780191971271316
10,114608577.11388752
894,766168.196131842
2,1, 7,21, 0, 6,10.00,20.00,SummerDesignDay
8,20.79053773449398
10,110524473.85902885
894,766168.196131842
2,1, 7,21, 0, 6,20.00,30.00,SummerDesignDay
8,20.800879423352016
10,109963861.54952689
894,766168.196131842
2,1, 7,21, 0, 6,30.00,40.00,SummerDesignDay
8,20.811212600492369
10,110248213.42991501
894,766168.196131842
2,1, 7,21, 0, 6,40.00,50.00,SummerDesignDay
8,20.82154626521223
10,110392421.78890945
894,766168.196131842
2,1, 7,21, 0, 6,50.00,60.00,SummerDesignDay
8,20.83187595308267
10,110698314.56844358
894,766168.196131842
2,1, 7,21, 0, 6, 0.00,60.00,SummerDesignDay
1128,25.71510944143344
1168,28.486803481891255
1208,25.71216637055886
1248,25.712833388147229
1288,27.403866052631515
1328,27.249872328612143
1368,27.089614470787937
1408,25.700644032071339
1448,25.70755254913958
1488,25.701286701723075
1528,25.70611252235715
1568,27.883048313921095
1608,29.582639696155299
1648,28.522943227334414
1688,28.09273401489374
1728,25.698420134049049
1768,25.707316773261114
1808,25.69885232822239
1848,25.70385758129103
1888,25.699291786180966
1928,25.707240059817168
1968,25.70009320847893
2008,25.7046604948945
2048,26.7341918641973
2,1, 7,21, 0, 7, 0.00,10.00,SummerDesignDay
8,20.867991483822359
10,139958855.2805469
894,766168.196131842
2,1, 7,21, 0, 7,10.00,20.00,SummerDesignDay
8,20.904056518827426
10,125604663.08930317
894,766168.196131842
2,1, 7,21, 0, 7,20.00,30.00,SummerDesignDay
8,20.94007141118511
10,121402097.68504732
894,766168.196131842
2,1, 7,21, 0, 7,30.00,40.00,SummerDesignDay
8,20.976035719324256
10,124902186.13616881
894,766168.196131842
2,1, 7,21, 0, 7,40.00,50.00,SummerDesignDay
8,21.011954667733219
10,122818503.00767279
894,766168.196131842
2,1, 7,21, 0, 7,50.00,60.00,SummerDesignDay
8,21.04781854686137
10,122781263.97769791
894,766168.196131842
2,1, 7,21, 0, 7, 0.00,60.00,SummerDesignDay
1128,25.014286802076346
1168,24.36306016691795
1208,25.012975727197444
1248,25.013359172682074
1288,27.449271226093417
1328,27.292464735145363
1368,27.132333881627479
1408,25.00121139310348
1448,25.004772645219118
1488,25.01123201001317
1528,25.002010752372866
1568,24.153046121241208
1608,24.342515558798057
1648,24.33624501928975
1688,24.101216312886938
1728,25.001166779108105
1768,25.005112924324409
1808,25.01133800971213
1848,25.00195119525877
1888,25.00123495547922
1928,25.005383750545833
1968,25.011315768736499
2008,25.00195782506727
2048,27.00262527822674
2,1, 7,21, 0, 8, 0.00,10.00,SummerDesignDay
8,21.13471110025821
10,138755973.1834624
894,766168.196131842
2,1, 7,21, 0, 8,10.00,20.00,SummerDesignDay
8,21.221309664954885
10,137193381.50118099
894,766168.196131842
2,1, 7,21, 0, 8,20.00,30.00,SummerDesignDay
8,21.307616677758387
10,135615480.22844423
894,766168.196131842
2,1, 7,21, 0, 8,30.00,40.00,SummerDesignDay
8,21.393633962021306
10,132765915.24829537
894,766168.196131842
2,1, 7,21, 0, 8,40.00,50.00,SummerDesignDay
8,21.479363454901848
10,132726837.23981636
894,766168.196131842
2,1, 7,21, 0, 8,50.00,60.00,SummerDesignDay
8,21.56480572828825
10,132156523.4662945
894,766168.196131842
2,1, 7,21, 0, 8, 0.00,60.00,SummerDesignDay
1128,24.128094399508695
1168,23.997713179824605
1208,24.085836145483936
1248,24.086750989532278
1288,27.502407595937787
1328,27.33731889428689
1368,27.193828157754369
1408,24.019439197985123
1448,24.074218121729904
1488,24.055058195567609
1528,24.00996805341006
1568,23.998095428243475
1608,23.997734973943396
1648,23.998294146635958
1688,23.99836481686225
1728,24.019715952557865
1768,24.077378247767898
1808,24.05574312932445
1848,24.009789326806599
1888,24.019164214062916
1928,24.07797940554904
1968,24.052839159113579
2008,24.009763375476884
2048,27.477826990429749
2,1, 7,21, 0, 9, 0.00,10.00,SummerDesignDay
8,21.659959494127649
10,132214408.63279039
894,766168.196131842
2,1, 7,21, 0, 9,10.00,20.00,SummerDesignDay
8,21.754763580187868
10,132469645.56681797
894,766168.196131842
2,1, 7,21, 0, 9,20.00,30.00,SummerDesignDay
8,21.849216689035449
10,132839655.27038843
894,766168.196131842
2,1, 7,21, 0, 9,30.00,40.00,SummerDesignDay
8,21.94331558480392
10,133256179.12059845
894,766168.196131842
2,1, 7,21, 0, 9,40.00,50.00,SummerDesignDay
8,22.03707130951595
10,133729965.35296798
894,766168.196131842
2,1, 7,21, 0, 9,50.00,60.00,SummerDesignDay
8,22.13048294716832
10,134282730.61848105
894,766168.196131842
2,1, 7,21, 0, 9, 0.00,60.00,SummerDesignDay
1128,23.999479706968235
1168,23.9974703357401
1208,23.998808034609863
1248,23.998798800529405
1288,27.558615809347587
1328,27.378081010282505
1368,27.282133044341309
1408,23.998728194870777
1448,24.000146707247155
1488,23.998748430228429
1528,23.999378805027903
1568,23.997378358561467
1608,23.99930346705733
1648,23.997243429251247
1688,23.998694111543576
1728,23.998692570339914
1768,23.999829936507326
1808,23.998690150513388
1848,23.999449998324129
1888,23.998711714288345
1928,23.999743077552698
1968,23.99877147443887
2008,23.999493444395929
2048,28.153595563623907
2,1, 7,21, 0,10, 0.00,10.00,SummerDesignDay
8,22.213769814432565
10,134751977.23572014
894,766168.196131842
2,1, 7,21, 0,10,10.00,20.00,SummerDesignDay
8,22.29678365659492
10,135226120.2505791
894,766168.196131842
2,1, 7,21, 0,10,20.00,30.00,SummerDesignDay
8,22.379526518080718
10,135685022.62628023
894,766168.196131842
2,1, 7,21, 0,10,30.00,40.00,SummerDesignDay
8,22.461998883090386
10,136133454.6863539
894,766168.196131842
2,1, 7,21, 0,10,40.00,50.00,SummerDesignDay
8,22.54420357090447
10,136563493.06232489
894,766168.196131842
2,1, 7,21, 0,10,50.00,60.00,SummerDesignDay
8,22.626140889876245
10,136973573.7169906
894,766168.196131842
2,1, 7,21, 0,10, 0.00,60.00,SummerDesignDay
1128,23.99885171108737
1168,23.997483885809616
1208,23.999076787705055
1248,23.99903645077355
1288,27.6000205626481
1328,27.416861839513829
1368,27.356504896571633
1408,23.999349327253247
1448,23.999984757032938
1488,23.99872222226747
1528,24.000098138362984
1568,23.996615964447263
1608,23.998457752179474
1648,23.996801301474354
1688,23.998348086951159
1728,23.999004617250319
1768,23.999837452226648
1808,23.998661325694873
1848,23.999321483303846
1888,23.999067696320567
1928,23.99975457099161
1968,23.99870290709727
2008,23.99935116769197
2048,28.831706436434048
2,1, 7,21, 0,11, 0.00,10.00,SummerDesignDay
8,22.698217126852719
10,137304935.67190127
894,766168.196131842
2,1, 7,21, 0,11,10.00,20.00,SummerDesignDay
8,22.770087609245694
10,137617818.68897925
894,766168.196131842
2,1, 7,21, 0,11,20.00,30.00,SummerDesignDay
8,22.841753902583265
10,137911872.61528493
894,766168.196131842
2,1, 7,21, 0,11,30.00,40.00,SummerDesignDay
8,22.913216778184393
10,138181991.87217159
894,766168.196131842
2,1, 7,21, 0,11,40.00,50.00,SummerDesignDay
8,22.984480922747989
10,138442409.61786057
894,766168.196131842
2,1, 7,21, 0,11,50.00,60.00,SummerDesignDay
8,23.055539233117515
10,138697157.44312469
894,766168.196131842
2,1, 7,21, 0,11, 0.00,60.00,SummerDesignDay
1128,23.99887318055887
1168,23.997467784441417
1208,23.99912724010342
1248,23.999044185134509
1288,27.63687151415469
1328,27.45172618778263
1368,27.410904316713716
1408,23.998334075801556
1448,23.999164123824199
1488,23.99866038972669
1528,24.000250064875926
1568,23.997198842786376
1608,24.000324477311876
1648,23.996696452878309
1688,23.998154907861637
1728,23.99827151744981
1768,23.99902206515443
1808,23.998596764363126
1848,24.000318996697137
1888,23.998269644703546
1928,23.99889560885732
1968,23.99859897433727
2008,23.9996972333019
2048,29.416594768389414
2,1, 7,21, 0,12, 0.00,10.00,SummerDesignDay
8,23.102801503400955
10,138805103.76081015
894,766168.196131842
2,1, 7,21, 0,12,10.00,20.00,SummerDesignDay
8,23.149970529930298
10,138921120.45156805
894,766168.196131842
2,1, 7,21, 0,12,20.00,30.00,SummerDesignDay
8,23.197054535495359
10,139046316.89843399
894,766168.196131842
2,1, 7,21, 0,12,30.00,40.00,SummerDesignDay
8,23.24405091760279
10,139213609.25651116
894,766168.196131842
2,1, 7,21, 0,12,40.00,50.00,SummerDesignDay
8,23.290959239877084
10,139419028.07066188
894,766168.196131842
2,1, 7,21, 0,12,50.00,60.00,SummerDesignDay
8,23.337780161397366
10,139699638.03231199
894,766168.196131842
2,1, 7,21, 0,12, 0.00,60.00,SummerDesignDay
1128,23.998878060149214
1168,23.997473053527114
1208,23.999152141197503
1248,23.999019396178487
1288,27.665321763292
1328,27.4728398363761
1368,27.447731291182718
1408,23.999370086956746
1448,23.997966879287707
1488,23.998632254451267
1528,23.99990619744634
1568,23.996262222384308
1608,23.99801827991639
1648,23.997528041404228
1688,23.99806502426436
1728,23.999236718539355
1768,23.99816539824373
1808,23.998567855908303
1848,24.00029634165902
1888,23.999236407559363
1928,23.99844603654523
1968,23.998536696911129
2008,24.000541279754939
2048,29.878358933617237
2,1, 7,21, 0,13, 0.00,10.00,SummerDesignDay
8,23.375168696321454
10,140044333.87938605
894,766168.196131842
2,1, 7,21, 0,13,10.00,20.00,SummerDesignDay
8,23.412509317763463
10,140453325.96943943
894,766168.196131842
2,1, 7,21, 0,13,20.00,30.00,SummerDesignDay
8,23.44978183331926
10,140892620.67563255
894,766168.196131842
2,1, 7,21, 0,13,30.00,40.00,SummerDesignDay
8,23.48701638811906
10,141358850.6908414
894,766168.196131842
2,1, 7,21, 0,13,40.00,50.00,SummerDesignDay
8,23.52417733438429
10,141841352.0736944
894,766168.196131842
2,1, 7,21, 0,13,50.00,60.00,SummerDesignDay
8,23.561301163043504
10,142330915.18571804
894,766168.196131842
2,1, 7,21, 0,13, 0.00,60.00,SummerDesignDay
1128,23.99887994082383
1168,23.997464424135854
1208,23.99917145697957
1248,23.998986827208169
1288,27.68210860788116
1328,27.484562756193858
1368,27.468137979415649
1408,23.999764416471164
1448,23.998407884873786
1488,23.998605182916334
1528,23.999392962822289
1568,23.996528405163489
1608,23.99887951858689
1648,23.998256169993636
1688,23.997642975232229
1728,23.999595182334628
1768,23.998279780501233
1808,23.99854054195356
1848,23.999206809562435
1888,23.999453879413506
1928,23.99896817184595
1968,23.998483204450208
2008,23.999211883521754
2048,30.19156065567832
2,1, 7,21, 0,14, 0.00,10.00,SummerDesignDay
8,23.584468652232446
10,142725398.95136599
894,5093378.98815527
2,1, 7,21, 0,14,10.00,20.00,SummerDesignDay
8,23.607614591370639
10,143108343.0842495
894,766168.196131842
2,1, 7,21, 0,14,20.00,30.00,SummerDesignDay
8,23.630734203455029
10,143474490.9762319
894,766168.196131842
2,1, 7,21, 0,14,30.00,40.00,SummerDesignDay
8,23.65384967253545
10,143815531.45906595
894,5085209.403417503
2,1, 7,21, 0,14,40.00,50.00,SummerDesignDay
8,23.676931270816597
10,144140601.09416793
894,766168.196131842
2,1, 7,21, 0,14,50.00,60.00,SummerDesignDay
8,23.699991650503447
10,144424937.82749868
894,994545.7182778954
2,1, 7,21, 0,14, 0.00,60.00,SummerDesignDay
1128,23.99887528753656
1168,23.99742447328966
1208,23.999180508464368
1248,23.99894726926905
1288,27.69526501688482
1328,27.497918857698254
1368,27.481652978966399
1408,23.999857665320179
1448,23.99812970047353
1488,23.99858776655702
1528,23.99872003846664
1568,23.997464790631687
1608,23.99895324913469
1648,23.99790794084529
1688,23.99675558248974
1728,23.999726841166493
1768,23.999915998355758
1808,23.99852332744592
1848,23.998657538624327
1888,23.999853807489389
1928,23.999854775581537
1968,23.9992526879046
2008,23.99865046667925
2048,30.36025491774397
2,1, 7,21, 0,15, 0.00,10.00,SummerDesignDay
8,23.699991650503447
10,144517253.06453527
894,4703754.8510426389
2,1, 7,21, 0,15,10.00,20.00,SummerDesignDay
8,23.699991650503447
10,144576662.0273228
894,766168.196131842
2,1, 7,21, 0,15,20.00,30.00,SummerDesignDay
8,23.699991650503447
10,144601838.25702504
894,766168.196131842
2,1, 7,21, 0,15,30.00,40.00,SummerDesignDay
8,23.699991650503447
10,144595939.60474245
894,766168.196131842
2,1, 7,21, 0,15,40.00,50.00,SummerDesignDay
8,23.699991650503447
10,144559083.26583237
894,766168.196131842
2,1, 7,21, 0,15,50.00,60.00,SummerDesignDay
8,23.699991650503447
10,144497745.64113263
894,946359.633036746
2,1, 7,21, 0,15, 0.00,60.00,SummerDesignDay
1128,23.99886994254966
1168,23.9974022059221
1208,23.999194037810253
1248,23.99891567853042
1288,27.70600930520186
1328,27.520700496304145
1368,27.492197419360605
1408,23.999416498625199
1448,23.998272254288748
1488,23.998622067648218
1528,23.9980001770862
1568,23.99917335444003
1608,23.99897508399329
1648,23.997839836865624
1688,23.996137492843788
1728,23.999357049331967
1768,24.000137647483908
1808,23.99855853068551
1848,23.99792436554544
1888,23.999205377319396
1928,23.999830297977394
1968,24.000087289854546
2008,23.997906866957906
2048,30.389293661285504
2,1, 7,21, 0,16, 0.00,10.00,SummerDesignDay
8,23.672307358563665
10,144148275.35404445
894,4721617.358995845
2,1, 7,21, 0,16,10.00,20.00,SummerDesignDay
8,23.64460948071794
10,143821950.984488
894,766168.196131842
2,1, 7,21, 0,16,20.00,30.00,SummerDesignDay
8,23.61686844545739
10,143492598.830995
894,766168.196131842
2,1, 7,21, 0,16,30.00,40.00,SummerDesignDay
8,23.589091188236055
10,143128743.00023965
894,766168.196131842
2,1, 7,21, 0,16,40.00,50.00,SummerDesignDay
8,23.561301163043504
10,142753814.51155345
894,766168.196131842
2,1, 7,21, 0,16,50.00,60.00,SummerDesignDay
8,23.533467080370163
10,142380580.52278508
894,766168.196131842
2,1, 7,21, 0,16, 0.00,60.00,SummerDesignDay
1128,23.998869200168703
1168,23.997411143573016
1208,23.999224943014313
1248,23.998901623052459
1288,27.705305069868549
1328,27.544961222251545
1368,27.491009902894207
1408,24.00036473605115
1448,23.998222468158987
1488,23.998777886042217
1528,23.999238328642165
1568,23.99861338100068
1608,23.999016280118228
1648,23.998413571870818
1688,23.997987144291643
1728,24.00036844202756
1768,23.998639148974804
1808,23.99871618433606
1848,23.998991682197894
1888,24.000070617896346
1928,23.999848817062646
1968,23.998635996286639
2008,23.999002566505454
2048,30.26747346298362
2,1, 7,21, 0,17, 0.00,10.00,SummerDesignDay
8,23.496315172028504
10,141956341.64731188
894,4996652.298896288
2,1, 7,21, 0,17,10.00,20.00,SummerDesignDay
8,23.459098962673627
10,141537514.706724
894,766168.196131842
2,1, 7,21, 0,17,20.00,30.00,SummerDesignDay
8,23.421835869543999
10,141173528.85411526
894,766168.196131842
2,1, 7,21, 0,17,30.00,40.00,SummerDesignDay
8,23.384509217485939
10,140819886.7476491
894,766168.196131842
2,1, 7,21, 0,17,40.00,50.00,SummerDesignDay
8,23.34713053816139
10,140413937.9692593
894,4999660.045212851
2,1, 7,21, 0,17,50.00,60.00,SummerDesignDay
8,23.309695989572697
10,139973146.9068374
894,766168.196131842
2,1, 7,21, 0,17, 0.00,60.00,SummerDesignDay
1128,23.998881783672976
1168,23.99739507806615
1208,23.999277206472767
1248,23.998910570764115
1288,27.68632040902286
1328,27.559893742516527
1368,27.473072786975334
1408,24.0005786079026
1448,23.99782811523073
1488,23.99882975520994
1528,23.99915606043243
1568,23.998772520843276
1608,23.999211741787396
1648,23.99780935080412
1688,23.999460476671556
1728,24.00013524340726
1768,23.998241304509233
1808,23.9987696075212
1848,23.998956772377963
1888,24.00030758100461
1928,23.998486898373416
1968,23.998604550040324
2008,23.998878521497138
2048,29.987526025791398
2,1, 7,21, 0,18, 0.00,10.00,SummerDesignDay
8,23.262826699708766
10,139471115.24068926
894,766168.196131842
2,1, 7,21, 0,18,10.00,20.00,SummerDesignDay
8,23.21586584854855
10,138958676.7283821
894,766168.196131842
2,1, 7,21, 0,18,20.00,30.00,SummerDesignDay
8,23.168816376440029
10,138527482.5543198
894,766168.196131842
2,1, 7,21, 0,18,30.00,40.00,SummerDesignDay
8,23.12167829542215
10,137756167.77211849
894,766168.196131842
2,1, 7,21, 0,18,40.00,50.00,SummerDesignDay
8,23.074452033295477
10,137147941.1507324
894,766168.196131842
2,1, 7,21, 0,18,50.00,60.00,SummerDesignDay
8,23.02714043821021
10,136563590.68837557
894,766168.196131842
2,1, 7,21, 0,18, 0.00,60.00,SummerDesignDay
1128,23.99887653022495
1168,23.99739465471018
1208,23.999296560814427
1248,23.99890334545256
1288,27.655865333705337
1328,27.562825312480134
1368,27.444145671181475
1408,24.00070238321319
1448,23.99820998781644
1488,23.998529677774344
1528,23.999925898282667
1568,23.998868076964869
1608,23.999571129881799
1648,23.997782059835346
1688,23.998744310655188
1728,23.999944902148234
1768,23.997881689002683
1808,23.998469571391359
1848,24.000365292795597
1888,23.999272377211584
1928,23.998279608923029
1968,23.999471909294145
2008,24.000226946144143
2048,29.57081360695297
2,1, 7,21, 0,19, 0.00,10.00,SummerDesignDay
8,22.955998030729086
10,135655116.94956524
894,766168.196131842
2,1, 7,21, 0,19,10.00,20.00,SummerDesignDay
8,22.884656963830858
10,134780125.18814335
894,4846873.468216376
2,1, 7,21, 0,19,20.00,30.00,SummerDesignDay
8,22.813112648278538
10,134152717.75712608
894,766168.196131842
2,1, 7,21, 0,19,30.00,40.00,SummerDesignDay
8,22.74136475535084
10,133631330.75900322
894,766168.196131842
2,1, 7,21, 0,19,40.00,50.00,SummerDesignDay
8,22.669412429768046
10,132617595.89943318
894,766168.196131842
2,1, 7,21, 0,19,50.00,60.00,SummerDesignDay
8,22.597249180691447
10,132681648.28378669
894,766168.196131842
2,1, 7,21, 0,19, 0.00,60.00,SummerDesignDay
1128,23.9988971197687
1168,23.997508973289177
1208,23.999354529935205
1248,23.998940651341909
1288,27.6075799084028
1328,27.54607370323546
1368,27.396871725539726
1408,24.000210690357876
1448,23.998326219623939
1488,23.999081591431989
1528,23.998948220595297
1568,23.998987550265228
1608,23.99863556705245
1648,23.997901273141708
1688,23.999553487506419
1728,24.00042352901781
1768,23.998358279878916
1808,23.999028042282708
1848,23.999135205720905
1888,23.999797748222688
1928,23.998420304120754
1968,23.99887807910308
2008,23.999336460745118
2048,29.044911031763176
2,1, 7,21, 0,20, 0.00,10.00,SummerDesignDay
8,22.54420357090447
10,133639613.139357
894,766168.196131842
2,1, 7,21, 0,20,10.00,20.00,SummerDesignDay
8,22.49104180927024
10,138201056.6603102
894,766168.196131842
2,1, 7,21, 0,20,20.00,30.00,SummerDesignDay
8,22.437767475426619
10,137662439.63670037
894,766168.196131842
2,1, 7,21, 0,20,30.00,40.00,SummerDesignDay
8,22.384385775235136
10,137219942.29552169
894,766168.196131842
2,1, 7,21, 0,20,40.00,50.00,SummerDesignDay
8,22.33088606837434
10,136818640.51887236
894,766168.196131842
2,1, 7,21, 0,20,50.00,60.00,SummerDesignDay
8,22.277273112035258
10,136448974.55183844
894,766168.196131842
2,1, 7,21, 0,20, 0.00,60.00,SummerDesignDay
1128,23.9989965529165
1168,23.997758867964014
1208,23.999551644602894
1248,23.99909790320294
1288,27.5367602633664
1328,27.49356270311348
1368,27.32697522514024
1408,24.000324742040573
1448,23.998991553460184
1488,24.000291128150186
1528,24.00007975879298
1568,23.998732007795295
1608,23.997420696848619
1648,23.998962068701905
1688,23.999414166527587
1728,24.000117726154654
1768,23.99930207702782
1808,24.00003167730051
1848,24.00001110680785